 vasp.6.5.1 10Mar25 (build Sep 17 2025 13:25:28) complex                         
 executed on              LinuxNV date 2025.10.26  21:30:25
 running    1 mpi-ranks, with    1 threads/rank, on    1 nodes
 distrk:  each k-point on    1 cores,    1 groups
 distr:  one band on NCORE=   1 cores,    1 groups
 Offloading initialized ...    1 GPUs detected


--------------------------------------------------------------------------------------------------------


 INCAR:
   SYSTEM = CuInSe
   ISTART = 1
   ENCUT = 600
   ISMEAR = 0
   SIGMA = 0.01
   LMAXMIX = 4
   PREC = accurate
   KPAR = 1
   LHFCALC = .TRUE.
   PRECFOCK = Normal
   AEXX = 0.25
   HFSCREEN = 0.2
   ALGO = Normal
   TIME = 0.4
   NKRED = 2
   NELMIN = 3
   EDIFF = 1E-5

 POTCAR:   PAW_PBE Cu 05Jan2001                   
 POTCAR:   PAW_PBE In_d 06Sep2000                 
 POTCAR:   PAW_PBE Se 06Sep2000                   
 POTCAR:   PAW_PBE Cu 05Jan2001                   
   VRHFIN =Cu: d10 p1                                                                               
   LEXCH  = PE                                                                                      
   EATOM  =  1390.9800 eV,  102.2341 Ry                                                             
                                                                                                    
   TITEL  = PAW_PBE Cu 05Jan2001                                                                    
   LULTRA =        F    use ultrasoft PP ?                                                          
   IUNSCR =        1    unscreen: 0-lin 1-nonlin 2-no                                               
   RPACOR =    2.000    partial core radius                                                         
   POMASS =   63.546; ZVAL   =   11.000    mass and valenz                                          
   RCORE  =    2.300    outmost cutoff radius                                                       
   RWIGS  =    2.480; RWIGS  =    1.312    wigner-seitz radius (au A)                               
   ENMAX  =  273.214; ENMIN  =  204.910 eV                                                          
   RCLOC  =    1.712    cutoff for local pot                                                        
   LCOR   =        T    correct aug charges                                                         
   LPAW   =        T    paw PP                                                                      
   EAUG   =  516.456                                                                                
   DEXC   =    -.008                                                                                
   RMAX   =    2.789    core radius for proj-oper                                                   
   RAUG   =    1.300    factor for augmentation sphere                                              
   RDEP   =    2.302    radius for radial grids                                                     
   QCUT   =   -4.481; QGAM   =    8.962    optimization parameters                                  
                                                                                                    
   Description                                                                                      
     l     E      TYP  RCUT    TYP  RCUT                                                            
     2   .000     23  2.300                                                                         
     2   .000     23  2.300                                                                         
     0   .000     23  2.300                                                                         
     0   .000     23  2.300                                                                         
     1  -.200     23  2.300                                                                         
     1   .000     23  2.300                                                                         
     3   .000      7   .000                                                                         
  local pseudopotential read in
  partial core-charges read in
  atomic valenz-charges read in
  non local Contribution for L=            2  read in
    real space projection operators read in
  non local Contribution for L=            2  read in
    real space projection operators read in
  non local Contribution for L=            0  read in
    real space projection operators read in
  non local Contribution for L=            0  read in
    real space projection operators read in
  non local Contribution for L=            1  read in
    real space projection operators read in
  non local Contribution for L=            1  read in
    real space projection operators read in
    PAW grid and wavefunctions read in
 
   number of l-projection  operators is LMAX  =            6
   number of lm-projection operators is LMMAX =           18
 
 POTCAR:   PAW_PBE In_d 06Sep2000                 
   VRHFIN =In: s2p1                                                                                 
   LEXCH  = PE                                                                                      
   EATOM  =  1576.8738 eV,  115.8970 Ry                                                             
                                                                                                    
   TITEL  = PAW_PBE In_d 06Sep2000                                                                  
   LULTRA =        F    use ultrasoft PP ?                                                          
   IUNSCR =        1    unscreen: 0-lin 1-nonlin 2-no                                               
   RPACOR =    2.200    partial core radius                                                         
   POMASS =  114.820; ZVAL   =   13.000    mass and valenz                                          
   RCORE  =    2.500    outmost cutoff radius                                                       
   RWIGS  =    3.170; RWIGS  =    1.677    wigner-seitz radius (au A)                               
   ENMAX  =  239.218; ENMIN  =  179.413 eV                                                          
   ICORE  =        3    local potential                                                             
   LCOR   =        T    correct aug charges                                                         
   LPAW   =        T    paw PP                                                                      
   EAUG   =  449.704                                                                                
   DEXC   =    -.003                                                                                
   RMAX   =    2.981    core radius for proj-oper                                                   
   RAUG   =    1.300    factor for augmentation sphere                                              
   RDEP   =    2.630    radius for radial grids                                                     
   QCUT   =   -4.193; QGAM   =    8.386    optimization parameters                                  
                                                                                                    
   Description                                                                                      
     l     E      TYP  RCUT    TYP  RCUT                                                            
     2   .000     23  2.500                                                                         
     2  -.100     23  2.500                                                                         
     0   .000     23  2.500                                                                         
     0   .000     23  2.500                                                                         
     1   .000     23  2.500                                                                         
     1   .000     23  2.500                                                                         
     3  -.100      7  2.500                                                                         
  local pseudopotential read in
  partial core-charges read in
  atomic valenz-charges read in
  non local Contribution for L=            2  read in
    real space projection operators read in
  non local Contribution for L=            2  read in
    real space projection operators read in
  non local Contribution for L=            0  read in
    real space projection operators read in
  non local Contribution for L=            0  read in
    real space projection operators read in
  non local Contribution for L=            1  read in
    real space projection operators read in
  non local Contribution for L=            1  read in
    real space projection operators read in
    PAW grid and wavefunctions read in
 
   number of l-projection  operators is LMAX  =            6
   number of lm-projection operators is LMMAX =           18
 
 POTCAR:   PAW_PBE Se 06Sep2000                   
   VRHFIN =Se: s2p4                                                                                 
   LEXCH  = PE                                                                                      
   EATOM  =   256.9644 eV,   18.8864 Ry                                                             
                                                                                                    
   TITEL  = PAW_PBE Se 06Sep2000                                                                    
   LULTRA =        F    use ultrasoft PP ?                                                          
   IUNSCR =        1    unscreen: 0-lin 1-nonlin 2-no                                               
   RPACOR =    1.900    partial core radius                                                         
   POMASS =   78.960; ZVAL   =    6.000    mass and valenz                                          
   RCORE  =    2.100    outmost cutoff radius                                                       
   RWIGS  =    2.200; RWIGS  =    1.164    wigner-seitz radius (au A)                               
   ENMAX  =  211.534; ENMIN  =  158.651 eV                                                          
   ICORE  =        3    local potential                                                             
   LCOR   =        T    correct aug charges                                                         
   LPAW   =        T    paw PP                                                                      
   EAUG   =  446.842                                                                                
   DEXC   =    -.031                                                                                
   RMAX   =    3.170    core radius for proj-oper                                                   
   RAUG   =    1.300    factor for augmentation sphere                                              
   RDEP   =    2.177    radius for radial grids                                                     
   QCUT   =   -3.943; QGAM   =    7.886    optimization parameters                                  
                                                                                                    
   Description                                                                                      
     l     E      TYP  RCUT    TYP  RCUT                                                            
     0   .000     23  2.100                                                                         
     0   .000     23  2.100                                                                         
     1   .000     23  2.100                                                                         
     1   .000     23  2.100                                                                         
     2   .000     23  2.100                                                                         
     3  -.100      7  2.100                                                                         
  local pseudopotential read in
  partial core-charges read in
  atomic valenz-charges read in
  non local Contribution for L=            0  read in
    real space projection operators read in
  non local Contribution for L=            0  read in
    real space projection operators read in
  non local Contribution for L=            1  read in
    real space projection operators read in
  non local Contribution for L=            1  read in
    real space projection operators read in
  non local Contribution for L=            2  read in
    real space projection operators read in
    PAW grid and wavefunctions read in
 
   number of l-projection  operators is LMAX  =            5
   number of lm-projection operators is LMMAX =           13
 
 -----------------------------------------------------------------------------
|                                                                             |
|               ----> ADVICE to this user running VASP <----                  |
|                                                                             |
|     You have a (more or less) 'large supercell' and for larger cells it     |
|     might be more efficient to use real-space projection operators.         |
|     Therefore, try LREAL= Auto in the INCAR file.                           |
|     Mind: If you want to do very accurate calculations, keep the            |
|     reciprocal projection scheme (i.e. LREAL=.FALSE.).                      |
|                                                                             |
 -----------------------------------------------------------------------------

 PAW_PBE Cu 05Jan2001                   :
 energy of atom  1       EATOM=-1390.9800
 kinetic energy error for atom=    0.0021 (will be added to EATOM!!)
 PAW_PBE In_d 06Sep2000                 :
 energy of atom  2       EATOM=-1576.8738
 kinetic energy error for atom=    0.0011 (will be added to EATOM!!)
 PAW_PBE Se 06Sep2000                   :
 energy of atom  3       EATOM= -256.9644
 kinetic energy error for atom=    0.0006 (will be added to EATOM!!)
 
 
 POSCAR: Cu1-In1-Se2 'I -4 2 d'  #122
  positions in direct lattice
  No initial velocities read in


 exchange-correlation table for PE
   RHO(1)=    0.500       N(1)  =     2000
   RHO(2)=  100.500       N(2)  =     4000
 


--------------------------------------------------------------------------------------------------------


 ion  position               nearest neighbor table
   1  0.000  0.250  0.125-  97 2.46  81 2.46  69 2.46 109 2.46
   2  0.000  0.250  0.625-  98 2.46  82 2.46  70 2.46 110 2.46
   3  0.000  0.750  0.125-  99 2.46  83 2.46  71 2.46 111 2.46
   4  0.000  0.750  0.625- 100 2.46  84 2.46  72 2.46 112 2.46
   5  0.500  0.250  0.125-  65 2.46  85 2.46 101 2.46 105 2.46
   6  0.500  0.250  0.625-  66 2.46  86 2.46 102 2.46 106 2.46
   7  0.500  0.750  0.125-  67 2.46  87 2.46 103 2.46 107 2.46
   8  0.500  0.750  0.625-  68 2.46  88 2.46 104 2.46 108 2.46
   9  0.000  0.000  0.000-  94 2.46  97 2.46  76 2.46 111 2.46
  10  0.000  0.000  0.500-  93 2.46  98 2.46  75 2.46 112 2.46
  11  0.000  0.500  0.000-  99 2.46  96 2.46  74 2.46 109 2.46
  12  0.000  0.500  0.500- 100 2.46  95 2.46  73 2.46 110 2.46
  13  0.500  0.000  0.000-  90 2.46  80 2.46 101 2.46 107 2.46
  14  0.500  0.000  0.500-  89 2.46  79 2.46 102 2.46 108 2.46
  15  0.500  0.500  0.000-  78 2.46  92 2.46 103 2.46 105 2.46
  16  0.500  0.500  0.500-  77 2.46  91 2.46 104 2.46 106 2.46
  17  0.250  0.000  0.375-  89 2.46  75 2.46 115 2.46 121 2.46
  18  0.250  0.000  0.875-  90 2.46  76 2.46 116 2.46 122 2.46
  19  0.250  0.500  0.375-  73 2.46  91 2.46 113 2.46 123 2.46
  20  0.250  0.500  0.875-  74 2.46  92 2.46 114 2.46 124 2.46
  21  0.750  0.000  0.375-  93 2.46  79 2.46 119 2.46 125 2.46
  22  0.750  0.000  0.875-  94 2.46  80 2.46 120 2.46 126 2.46
  23  0.750  0.500  0.375-  77 2.46  95 2.46 117 2.46 127 2.46
  24  0.750  0.500  0.875-  78 2.46  96 2.46 118 2.46 128 2.46
  25  0.250  0.250  0.250-  65 2.46  81 2.46 113 2.46 121 2.46
  26  0.250  0.250  0.750-  66 2.46  82 2.46 114 2.46 122 2.46
  27  0.250  0.750  0.250-  67 2.46  83 2.46 115 2.46 123 2.46
  28  0.250  0.750  0.750-  68 2.46  84 2.46 116 2.46 124 2.46
  29  0.750  0.250  0.250-  69 2.46  85 2.46 117 2.46 125 2.46
  30  0.750  0.250  0.750-  70 2.46  86 2.46 118 2.46 126 2.46
  31  0.750  0.750  0.250-  71 2.46  87 2.46 119 2.46 127 2.46
  32  0.750  0.750  0.750-  72 2.46  88 2.46 120 2.46 128 2.46
  33  0.000  0.250  0.375-  73 2.56 117 2.56 121 2.56  93 2.56
  34  0.000  0.250  0.875-  74 2.56 118 2.56 122 2.56  94 2.56
  35  0.000  0.750  0.375-  75 2.56  95 2.56 119 2.56 123 2.56
  36  0.000  0.750  0.875-  76 2.56  96 2.56 120 2.56 124 2.56
  37  0.500  0.250  0.375-  77 2.56 113 2.56 125 2.56  89 2.56
  38  0.500  0.250  0.875-  78 2.56 114 2.56 126 2.56  90 2.56
  39  0.500  0.750  0.375-  79 2.56  91 2.56 115 2.56 127 2.56
  40  0.500  0.750  0.875-  80 2.56  92 2.56 116 2.56 128 2.56
  41  0.000  0.000  0.250-  69 2.56  83 2.56 119 2.56 121 2.56
  42  0.000  0.000  0.750-  70 2.56  84 2.56 120 2.56 122 2.56
  43  0.000  0.500  0.250-  71 2.56  81 2.56 117 2.56 123 2.56
  44  0.000  0.500  0.750-  72 2.56  82 2.56 118 2.56 124 2.56
  45  0.500  0.000  0.250-  65 2.56  87 2.56 115 2.56 125 2.56
  46  0.500  0.000  0.750-  66 2.56  88 2.56 116 2.56 126 2.56
  47  0.500  0.500  0.250-  67 2.56  85 2.56 113 2.56 127 2.56
  48  0.500  0.500  0.750-  68 2.56  86 2.56 114 2.56 128 2.56
  49  0.250  0.000  0.125-  65 2.56  83 2.56 107 2.56  97 2.56
  50  0.250  0.000  0.625-  66 2.56  84 2.56 108 2.56  98 2.56
  51  0.250  0.500  0.125-  67 2.56  81 2.56 105 2.56  99 2.56
  52  0.250  0.500  0.625-  68 2.56  82 2.56 106 2.56 100 2.56
  53  0.750  0.000  0.125-  69 2.56  87 2.56 101 2.56 111 2.56
  54  0.750  0.000  0.625-  70 2.56  88 2.56 102 2.56 112 2.56
  55  0.750  0.500  0.125-  71 2.56  85 2.56 103 2.56 109 2.56
  56  0.750  0.500  0.625-  72 2.56  86 2.56 104 2.56 110 2.56
  57  0.250  0.250  0.000-  74 2.56 105 2.56  97 2.56  90 2.56
  58  0.250  0.250  0.500-  73 2.56 106 2.56  98 2.56  89 2.56
  59  0.250  0.750  0.000-  76 2.56  92 2.56 107 2.56  99 2.56
  60  0.250  0.750  0.500-  75 2.56  91 2.56 108 2.56 100 2.56
  61  0.750  0.250  0.000-  78 2.56 101 2.56 109 2.56  94 2.56
  62  0.750  0.250  0.500-  77 2.56 102 2.56 110 2.56  93 2.56
  63  0.750  0.750  0.000-  80 2.56  96 2.56 103 2.56 111 2.56
  64  0.750  0.750  0.500-  79 2.56  95 2.56 104 2.56 112 2.56
  65  0.375  0.132  0.188-   5 2.46  25 2.46  45 2.56  49 2.56
  66  0.375  0.132  0.688-   6 2.46  26 2.46  46 2.56  50 2.56
  67  0.375  0.632  0.188-   7 2.46  27 2.46  47 2.56  51 2.56
  68  0.375  0.632  0.688-   8 2.46  28 2.46  48 2.56  52 2.56
  69  0.875  0.132  0.188-   1 2.46  29 2.46  41 2.56  53 2.56
  70  0.875  0.132  0.688-   2 2.46  30 2.46  42 2.56  54 2.56
  71  0.875  0.632  0.188-   3 2.46  31 2.46  43 2.56  55 2.56
  72  0.875  0.632  0.688-   4 2.46  32 2.46  44 2.56  56 2.56
  73  0.125  0.382  0.438-  12 2.46  19 2.46  33 2.56  58 2.56
  74  0.125  0.382  0.938-  11 2.46  20 2.46  34 2.56  57 2.56
  75  0.125  0.882  0.438-  10 2.46  17 2.46  35 2.56  60 2.56
  76  0.125  0.882  0.938-   9 2.46  18 2.46  36 2.56  59 2.56
  77  0.625  0.382  0.438-  16 2.46  23 2.46  37 2.56  62 2.56
  78  0.625  0.382  0.938-  15 2.46  24 2.46  38 2.56  61 2.56
  79  0.625  0.882  0.438-  14 2.46  21 2.46  39 2.56  64 2.56
  80  0.625  0.882  0.938-  13 2.46  22 2.46  40 2.56  63 2.56
  81  0.125  0.368  0.188-   1 2.46  25 2.46  43 2.56  51 2.56
  82  0.125  0.368  0.688-   2 2.46  26 2.46  44 2.56  52 2.56
  83  0.125  0.868  0.188-   3 2.46  27 2.46  41 2.56  49 2.56
  84  0.125  0.868  0.688-   4 2.46  28 2.46  42 2.56  50 2.56
  85  0.625  0.368  0.188-   5 2.46  29 2.46  47 2.56  55 2.56
  86  0.625  0.368  0.688-   6 2.46  30 2.46  48 2.56  56 2.56
  87  0.625  0.868  0.188-   7 2.46  31 2.46  45 2.56  53 2.56
  88  0.625  0.868  0.688-   8 2.46  32 2.46  46 2.56  54 2.56
  89  0.375  0.117  0.438-  14 2.46  17 2.46  37 2.56  58 2.56
  90  0.375  0.117  0.938-  13 2.46  18 2.46  38 2.56  57 2.56
  91  0.375  0.618  0.438-  16 2.46  19 2.46  39 2.56  60 2.56
  92  0.375  0.618  0.938-  15 2.46  20 2.46  40 2.56  59 2.56
  93  0.875  0.117  0.438-  10 2.46  21 2.46  33 2.56  62 2.56
  94  0.875  0.117  0.938-   9 2.46  22 2.46  34 2.56  61 2.56
  95  0.875  0.618  0.438-  12 2.46  23 2.46  35 2.56  64 2.56
  96  0.875  0.618  0.938-  11 2.46  24 2.46  36 2.56  63 2.56
  97  0.117  0.125  0.063-   1 2.46   9 2.46  49 2.56  57 2.56
  98  0.117  0.125  0.563-   2 2.46  10 2.46  50 2.56  58 2.56
  99  0.117  0.625  0.063-   3 2.46  11 2.46  51 2.56  59 2.56
 100  0.117  0.625  0.563-   4 2.46  12 2.46  52 2.56  60 2.56
 101  0.618  0.125  0.063-   5 2.46  13 2.46  53 2.56  61 2.56
 102  0.618  0.125  0.563-   6 2.46  14 2.46  54 2.56  62 2.56
 103  0.618  0.625  0.063-   7 2.46  15 2.46  55 2.56  63 2.56
 104  0.618  0.625  0.563-   8 2.46  16 2.46  56 2.56  64 2.56
 105  0.382  0.375  0.063-   5 2.46  15 2.46  51 2.56  57 2.56
 106  0.382  0.375  0.563-   6 2.46  16 2.46  52 2.56  58 2.56
 107  0.382  0.875  0.063-   7 2.46  13 2.46  49 2.56  59 2.56
 108  0.382  0.875  0.563-   8 2.46  14 2.46  50 2.56  60 2.56
 109  0.882  0.375  0.063-   1 2.46  11 2.46  55 2.56  61 2.56
 110  0.882  0.375  0.563-   2 2.46  12 2.46  56 2.56  62 2.56
 111  0.882  0.875  0.063-   3 2.46   9 2.46  53 2.56  63 2.56
 112  0.882  0.875  0.563-   4 2.46  10 2.46  54 2.56  64 2.56
 113  0.368  0.375  0.313-  19 2.46  25 2.46  37 2.56  47 2.56
 114  0.368  0.375  0.813-  20 2.46  26 2.46  38 2.56  48 2.56
 115  0.368  0.875  0.313-  17 2.46  27 2.46  39 2.56  45 2.56
 116  0.368  0.875  0.813-  18 2.46  28 2.46  40 2.56  46 2.56
 117  0.868  0.375  0.313-  23 2.46  29 2.46  33 2.56  43 2.56
 118  0.868  0.375  0.813-  24 2.46  30 2.46  34 2.56  44 2.56
 119  0.868  0.875  0.313-  21 2.46  31 2.46  35 2.56  41 2.56
 120  0.868  0.875  0.813-  22 2.46  32 2.46  36 2.56  42 2.56
 121  0.132  0.125  0.313-  17 2.46  25 2.46  33 2.56  41 2.56
 122  0.132  0.125  0.813-  18 2.46  26 2.46  34 2.56  42 2.56
 123  0.132  0.625  0.313-  19 2.46  27 2.46  35 2.56  43 2.56
 124  0.132  0.625  0.813-  20 2.46  28 2.46  36 2.56  44 2.56
 125  0.632  0.125  0.313-  21 2.46  29 2.46  37 2.56  45 2.56
 126  0.632  0.125  0.813-  22 2.46  30 2.46  38 2.56  46 2.56
 127  0.632  0.625  0.313-  23 2.46  31 2.46  39 2.56  47 2.56
 128  0.632  0.625  0.813-  24 2.46  32 2.46  40 2.56  48 2.56
 
  LATTYP: Found a simple tetragonal cell.
 ALAT       =    11.5648002625
 C/A-ratio  =     2.0094077700
  
  Lattice vectors:
  
 A1 = (  11.5648002625,   0.0000000000,   0.0000000000)
 A2 = (   0.0000000000,  11.5648002625,   0.0000000000)
 A3 = (   0.0000000000,   0.0000000000,  23.2383995056)


Analysis of symmetry for initial positions (statically):
=====================================================================
 Subroutine PRICEL returns following result:
 
  LATTYP: Found a body centered tetragonal cell.
 ALAT       =     5.7824001313
 C/A-ratio  =     2.0094077700
  
  Lattice vectors:
  
 A1 = (   2.8912000656,  -2.8912000656,  -5.8095998764)
 A2 = (  -2.8912000656,   2.8912000656,  -5.8095998764)
 A3 = (   2.8912000656,   2.8912000656,   5.8095998764)
 
  16 primitive cells build up your supercell.
 

 Routine SETGRP: Setting up the symmetry group for a 
 simple tetragonal supercell.


 Subroutine GETGRP returns: Found  8 space group operations
 (whereof  4 operations were pure point group operations)
 out of a pool of 16 trial point group operations.


The static configuration has the point symmetry S_4 .
 The point group associated with its full space group is D_2d.


Analysis of symmetry for dynamics (positions and initial velocities):
=====================================================================
 Subroutine PRICEL returns following result:
 
  LATTYP: Found a body centered tetragonal cell.
 ALAT       =     5.7824001313
 C/A-ratio  =     2.0094077700
  
  Lattice vectors:
  
 A1 = (   2.8912000656,  -2.8912000656,  -5.8095998764)
 A2 = (  -2.8912000656,   2.8912000656,  -5.8095998764)
 A3 = (   2.8912000656,   2.8912000656,   5.8095998764)
 
  16 primitive cells build up your supercell.
 

 Routine SETGRP: Setting up the symmetry group for a 
 simple tetragonal supercell.


 Subroutine GETGRP returns: Found  8 space group operations
 (whereof  4 operations were pure point group operations)
 out of a pool of 16 trial point group operations.


The dynamic configuration has the point symmetry S_4 .
 The point group associated with its full space group is D_2d.


 Subroutine INISYM returns: Found  8 space group operations
 (whereof  4 operations are pure point group operations),
 and found    16 'primitive' translations


----------------------------------------------------------------------------------------

                                     Primitive cell                                     

  volume of cell :     194.2507

  direct lattice vectors                    reciprocal lattice vectors
     2.891200066 -2.891200066 -5.809599876     0.172938568  0.000000000 -0.086064447
    -2.891200066  2.891200066 -5.809599876    -0.000000000  0.172938568 -0.086064447
     2.891200066  2.891200066  5.809599876     0.172938568  0.172938568  0.000000000

  length of vectors
     7.104190761  7.104190761  7.104190761     0.193170488  0.193170488  0.244572069

  position of ions in fractional coordinates (direct lattice)
     0.750000000  0.250000000  0.500000000
     0.000000000  0.000000000  0.000000000
     0.250000000  0.750000000  0.500000000
     0.500000000  0.500000000  0.000000000
     0.375000000  0.889999986  0.014999986
     0.875000000  0.360000014  0.985000014
     0.110000000  0.125000000  0.485000000
     0.639999986  0.625000000  0.514999986

  ion indices of the primitive-cell ions
   primitive index   ion index
                 1           1
                 2           9
                 3          33
                 4          41
                 5          69
                 6          81
                 7          97
                 8         109

----------------------------------------------------------------------------------------

 
 
 KPOINTS: KPOINTS                                 

Automatic generation of k-mesh.
 Grid dimensions read from file:
 generate k-points for:    4    4    2

 Generating k-lattice:

  Cartesian coordinates                     Fractional coordinates (reciprocal lattice)
     0.021617321  0.000000000  0.000000000     0.250000000  0.000000000  0.000000000
     0.000000000  0.021617321  0.000000000     0.000000000  0.250000000  0.000000000
     0.000000000  0.000000000  0.021516112     0.000000000  0.000000000  0.500000000

  Length of vectors
     0.021617321  0.021617321  0.021516112

  Shift w.r.t. Gamma in fractional coordinates (k-lattice)
     0.000000000  0.000000000  0.000000000

 
 Subroutine IBZKPT returns following result:
 ===========================================
 
 Found     12 irreducible k-points:
 
 Following reciprocal coordinates:
            Coordinates               Weight
  0.000000  0.000000  0.000000      1.000000
  0.250000  0.000000  0.000000      4.000000
  0.500000  0.000000  0.000000      2.000000
  0.250000  0.250000  0.000000      4.000000
  0.500000  0.250000  0.000000      4.000000
  0.500000  0.500000  0.000000      1.000000
  0.000000  0.000000  0.500000      1.000000
  0.250000  0.000000  0.500000      4.000000
  0.500000  0.000000  0.500000      2.000000
  0.250000  0.250000  0.500000      4.000000
  0.500000  0.250000  0.500000      4.000000
  0.500000  0.500000  0.500000      1.000000
 
 Following cartesian coordinates:
            Coordinates               Weight
  0.000000  0.000000  0.000000      1.000000
  0.021617  0.000000  0.000000      4.000000
  0.043235  0.000000  0.000000      2.000000
  0.021617  0.021617  0.000000      4.000000
  0.043235  0.021617  0.000000      4.000000
  0.043235  0.043235  0.000000      1.000000
  0.000000  0.000000  0.021516      1.000000
  0.021617  0.000000  0.021516      4.000000
  0.043235  0.000000  0.021516      2.000000
  0.021617  0.021617  0.021516      4.000000
  0.043235  0.021617  0.021516      4.000000
  0.043235  0.043235  0.021516      1.000000
 
 
 Subroutine IBZKPT_HF returns following result:
 ==============================================
 
 Found     32 k-points in 1st BZ
 the following     32 k-points will be used (e.g. in the exchange kernel)
 Following reciprocal coordinates:   # in IRBZ
  0.000000  0.000000  0.000000    0.03125000   1 t-inv F
  0.250000  0.000000  0.000000    0.03125000   2 t-inv F
  0.500000  0.000000  0.000000    0.03125000   3 t-inv F
  0.250000  0.250000  0.000000    0.03125000   4 t-inv F
  0.500000  0.250000  0.000000    0.03125000   5 t-inv F
  0.500000  0.500000  0.000000    0.03125000   6 t-inv F
  0.000000  0.000000  0.500000    0.03125000   7 t-inv F
  0.250000  0.000000  0.500000    0.03125000   8 t-inv F
  0.500000  0.000000  0.500000    0.03125000   9 t-inv F
  0.250000  0.250000  0.500000    0.03125000  10 t-inv F
  0.500000  0.250000  0.500000    0.03125000  11 t-inv F
  0.500000  0.500000  0.500000    0.03125000  12 t-inv F
  0.000000 -0.250000 -0.000000    0.03125000   2 t-inv F
 -0.250000 -0.000000  0.000000    0.03125000   2 t-inv F
 -0.000000  0.250000 -0.000000    0.03125000   2 t-inv F
  0.000000 -0.500000 -0.000000    0.03125000   3 t-inv F
  0.250000 -0.250000 -0.000000    0.03125000   4 t-inv F
 -0.250000 -0.250000  0.000000    0.03125000   4 t-inv F
 -0.250000  0.250000 -0.000000    0.03125000   4 t-inv F
  0.250000 -0.500000 -0.000000    0.03125000   5 t-inv F
 -0.500000 -0.250000  0.000000    0.03125000   5 t-inv F
 -0.250000  0.500000 -0.000000    0.03125000   5 t-inv F
  0.000000 -0.250000 -0.500000    0.03125000   8 t-inv F
 -0.250000 -0.000000  0.500000    0.03125000   8 t-inv F
 -0.000000  0.250000 -0.500000    0.03125000   8 t-inv F
  0.000000 -0.500000 -0.500000    0.03125000   9 t-inv F
  0.250000 -0.250000 -0.500000    0.03125000  10 t-inv F
 -0.250000 -0.250000  0.500000    0.03125000  10 t-inv F
 -0.250000  0.250000 -0.500000    0.03125000  10 t-inv F
  0.250000 -0.500000 -0.500000    0.03125000  11 t-inv F
 -0.500000 -0.250000  0.500000    0.03125000  11 t-inv F
 -0.250000  0.500000 -0.500000    0.03125000  11 t-inv F


--------------------------------------------------------------------------------------------------------




 Dimension of arrays:
   k-points           NKPTS =     12   k-points in BZ     NKDIM =     32   number of bands    NBANDS=    691
   number of dos      NEDOS =    301   number of ions     NIONS =    128
   non local maximal  LDIM  =      6   non local SUM 2l+1 LMDIM =     18
   total plane-waves  NPLWV = ******
   max r-space proj   IRMAX =      1   max aug-charges    IRDMAX=  25025
   dimension x,y,z NGX =    96 NGY =   96 NGZ =  192
   dimension x,y,z NGXF=   192 NGYF=  192 NGZF=  384
   support grid    NGXF=   192 NGYF=  192 NGZF=  384
   ions per type =              32  32  64
   NGX,Y,Z   is equivalent  to a cutoff of  13.80, 13.80, 13.74 a.u.
   NGXF,Y,Z  is equivalent  to a cutoff of  27.60, 27.60, 27.47 a.u.

 SYSTEM =  CuInSe                                  
 POSCAR =  Cu1-In1-Se2 'I -4 2 d'  #122            

 Startparameter for this run:
   NWRITE =      2    write-flag & timer
   PREC   = accura    normal or accurate (medium, high low for compatibility)
   ISTART =      0    job   : 0-new  1-cont  2-samecut
   ICHARG =      2    charge: 1-file 2-atom 10-const
   ISPIN  =      1    spin polarized calculation?
   LNONCOLLINEAR =      F non collinear calculations
   LSORBIT =      F    spin-orbit coupling
   INIWAV =      1    electr: 0-lowe 1-rand  2-diag
   LASPH  =      F    aspherical Exc in radial PAW
 Electronic Relaxation 1
   ENCUT  =  600.0 eV  44.10 Ry    6.64 a.u.  23.10 23.10 46.41*2*pi/ulx,y,z
   ENINI  =  600.0     initial cutoff
   ENAUG  =  516.5 eV  augmentation charge cutoff
   NELM   =     60;   NELMIN=  3; NELMDL=  0     # of ELM steps 
   EDIFF  = 0.1E-04   stopping-criterion for ELM
   LREAL  =      F    real-space projection
   NLSPLINE    = F    spline interpolate recip. space projectors
   LCOMPAT=      F    compatible to vasp.4.4
   GGA_COMPAT  = T    GGA compatible to vasp.4.4-vasp.4.6
   LMAXPAW     = -100 max onsite density
   LMAXMIX     =    4 max onsite mixed and CHGCAR
   VOSKOWN=      0    Vosko Wilk Nusair interpolation
   ROPT   =    0.00000   0.00000   0.00000
 Ionic relaxation
   EDIFFG = 0.1E-03   stopping-criterion for IOM
   NSW    =      0    number of steps for IOM
   NBLOCK =      1;   KBLOCK =      1    inner block; outer block 
   IBRION =     -1    ionic relax: 0-MD 1-quasi-New 2-CG
   NFREE  =      0    steps in history (QN), initial steepest desc. (CG)
   ISIF   =      0    stress and relaxation
   IWAVPR =     10    prediction:  0-non 1-charg 2-wave 3-comb
   ISYM   =      3    0-nonsym 1-usesym 2-fastsym
   LCORR  =      T    Harris-Foulkes like correction to forces

   POTIM  = 0.5000    time-step for ionic-motion
   TEIN   =    0.0    initial temperature
   TEBEG  =    0.0;   TEEND  =   0.0 temperature during run
   SMASS  =  -3.00    Nose mass-parameter (am)
   estimated Nose-frequenzy (Omega)   =  0.10E-29 period in steps = 0.13E+47 mass=  -0.306E-26a.u.
   SCALEE = 1.0000    scale energy and forces
   NPACO  =    256;   APACO  = 10.0  distance and # of slots for P.C.
   PSTRESS=    0.0 pullay stress

  Mass of Ions in am
   POMASS =  63.55114.82 78.96
  Ionic Valenz
   ZVAL   =  11.00 13.00  6.00
  Atomic Wigner-Seitz radii
   RWIGS  =  -1.00 -1.00 -1.00
  virtual crystal weights 
   VCA    =   1.00  1.00  1.00
   NELECT =    1152.0000    total number of electrons
   NUPDOWN=      -1.0000    fix difference up-down

 DOS related values:
   EMIN   =  10.00;   EMAX   =-10.00  energy-range for DOS
   EFERMI =   0.00;   METHOD = LEGACY      
   ISMEAR =     0;   SIGMA  =   0.01  broadening in eV -4-tet -1-fermi 0-gaus
   EFERMI_NEDOS =   21; number of points for ismear=-14 and -15

 Electronic relaxation 2 (details)
   IALGO  =     38    algorithm
   LDIAG  =      T    sub-space diagonalisation (order eigenvalues)
   LSUBROT=      F    optimize rotation matrix (better conditioning)
   LROBUST=      F    robust break criterion during scf (extrapolated energy error)
   ISEARCH=      0    line search for conjugate gradient (0, 1=use gradient)
   TURBO    =      0    0=normal 1=particle mesh
   IRESTART =      0    0=no restart 2=restart with 2 vectors
   NREBOOT  =      0    no. of reboots
   NMIN     =      0    reboot dimension
   EREF     =   0.00    reference energy to select bands
   IMIX   =      1    mixing-type and parameters
     AMIX     =   0.40;   BMIX     =  1.00
     AMIX_MAG =   1.60;   BMIX_MAG =  1.00
     AMIN     =   0.10
     WC   =   100.;   INIMIX=   1;  MIXPRE=   1;  MAXMIX= -45

 Intra band minimization:
   WEIMIN = 0.0000     energy-eigenvalue tresh-hold
   EBREAK =  0.36E-08  absolut break condition
   DEPER  =   0.30     relativ break condition  

   TIME   =   0.40     timestep for ELM

  volume/ion in A,a.u.               =      24.28       163.86
  Fermi-wavevector in a.u.,A,eV,Ry     =   1.175975  2.222271 18.815737  1.382918
  Thomas-Fermi vector in A             =   2.312347
 
 Write flags
   LWAVE        =      T    write WAVECAR
   LDOWNSAMPLE  =      F    k-point downsampling of WAVECAR
   LCHARG       =      T    write CHGCAR
   LVTOT        =      F    write LOCPOT, total local potential
   LVHAR        =      F    write LOCPOT, Hartree potential only
   WRT_POTENTIAL= false  ! write potential to hdf5 file
   LELF         =      F    write electronic localiz. function (ELF)
   LORBIT       =      0    0 simple, 1 ext, 2 COOP (PROOUT), +10 PAW based schemes


 Python interface
   PLUGINS active      =      F    recompile with -DPLUGINS to activate
 
 Dipole corrections
   LMONO      =      F    monopole corrections only (constant potential shift)
   LDIPOL     =      F    correct potential (dipole corrections)
   IDIPOL     =      0    1-x, 2-y, 3-z, 4-all directions 
   EPSILON    =  1.0000000 bulk dielectric constant
   LVACPOTAV  =      F  vacuum potentials using an averaging scheme for the charge density
   VACPOTFLAT =  0.1000000 required flatness to determine vacuum potential
 
Coulomb truncation method
  LTRUNCATE          =      F  Coulomb kernel truncation to be used

 
 Exchange correlation treatment:
   GGA     = PE    functional components
   XC_C    = 1    coefficients multiplying the functional components
   LIBXC   =     F    Libxc                    
   VOSKOWN =     0    Vosko Wilk Nusair interpolation
   EXXOEP  =     0    0=HF, 1=EXX-LHF (local Hartree Fock) 2=EXX OEP
   LHFCALC =     T    Hartree Fock is set to
   LSYMGRAD=     F    symmetrize gradient (conserves proper symmetry)
   PRECFOCK=normal    Normal, Fast or Accurate (Low or Medium for compatibility)
   LRHFCALC=     F    long range Hartree Fock
   LRSCOR  =     F    long range correlation only (use DFT for short range part)
   LTHOMAS =     F    Thomas Fermi screening in HF
   LMODELHF=     F    short range full HF, long range fraction AEXX
   FOCKCORR=     1    mode to apply convergence corrections
   LFOCKACE=     T    use Adeptively-Compressed-Exchange operator
   ENCUT4O =  -1.0   cutoff for four orbital integrals eV
   LMAXFOCK=     4    L truncation for augmentation on plane wave grid
   LMAXFOCKAE=  -1    L truncation for all-electron charge restoration on plane wave grid
   NMAXFOCKAE=   1    number of basis functions for all-electron charge restoration
   LFOCKAEDFT=     F  apply the AE augmentation even for DFT
   NKREDX  =     2    reduce k-point grid by
   NKREDY  =     2    reduce k-point grid by
   NKREDZ  =     2    reduce k-point grid by
   SHIFTRED=     F    shift reduced grid of Gamma
   HFKIDENT=     F    idential grid for each k-point
   ODDONLY =     F    use only odd q-grid points
   EVENONLY=     F    use only even q-grid points
   HFALPHA =   -1.0000 decay constant for conv. correction
   MCALPHA =    0.0000 extent of test-charge in conv. correction in multipole expansion
   AEXX    =    0.2500 exact exchange contribution
   HFSCREEN=    0.2000 screening length (either q_TF or 0.3 A-1)
   HFSCREENC=   0.2000 screening length for correlation (either q_TF or 0.3 A-1)
   HFRCUT  =    0.0000 spherical cutoff for potential kernel
   ALDAX   =    0.7500 LDA exchange part
   AGGAX   =    0.7500 GGA exchange part
   AMGGAX  =    0.7500 meta-GGA exchange part
   ALDAC   =    1.0000 LDA correlation
   AGGAC   =    1.0000 GGA correlation
   AMGGAC  =    1.0000 meta-GGA correlation
   ENCUTFOCK=  -1.0 apply spherical cutoff to Coloumb kernel
   NBANDSGWLOW=     1    first orbital included in HF term
   NBLOCK_FOCK=    64    blocking factor in FOCK_ACC

 Parameters of functionals:
   PE:
     No parameter
 
 Van der Waals corrections
   IVDW    =     0    specifies the selected vdW correction

 Linear response parameters
   LEPSILON=     F    determine dielectric tensor
   LRPA    =     F    only Hartree local field effects (RPA)
   LNABLA  =     F    use nabla operator in PAW spheres
   LVEL    =     F    velocity operator in full k-point grid
   CSHIFT  =0.1000    complex shift for real part using Kramers Kronig
   OMEGAMAX=  -1.0    maximum frequency
   DEG_THRESHOLD= 0.2000000E-02 threshold for treating states as degnerate
   RTIME   =   -0.100 relaxation time in fs
  (WPLASMAI=    0.000 imaginary part of plasma frequency in eV, 0.658/RTIME)
   DFIELD  = 0.0000000 0.0000000 0.0000000 field for delta impulse in time
 
  Optional k-point grid parameters
   LKPOINTS_OPT  =     F    use optional k-point grid
   KPOINTS_OPT_MODE=     1    mode for optional k-point grid
 
 Orbital magnetization related:
   ORBITALMAG=     F  switch on orbital magnetization
   LCHIMAG   =     F  perturbation theory with respect to B field
   DQ        =  0.001000  dq finite difference perturbation B field
   LLRAUG    =     F  two centre corrections for induced B field
   LBONE     =     F  B-component reconstruction in AE one-centre
   LVGVCALC  =     T  calculate vGv susceptibility
   LVGVAPPL  =     F  apply vGv susceptibility instead of pGv for G=0

 Random number generation:
   RANDOM_GENERATOR = DEFAULT
   PCG_SEED         = not used


--------------------------------------------------------------------------------------------------------


 Static calculation
 charge density and potential will be updated during run
 non-spin polarized calculation
 Variant of blocked Davidson
 Davidson routine will perform the subspace rotation
 perform sub-space diagonalisation
    after iterative eigenvector-optimisation
 Kerker-like  mixing scheme
 using additional bands           115
 reciprocal scheme for non local part
 use partial core corrections
 calculate Harris-corrections to forces 
   (improved forces if not selfconsistent)
 use gradient corrections 
 use of overlap-Matrix (Vanderbilt PP)
 Gauss-broadening in eV      SIGMA  =   0.01


--------------------------------------------------------------------------------------------------------


  energy-cutoff  :      600.00
  volume of cell :     3108.01
      direct lattice vectors                 reciprocal lattice vectors
    11.564800263  0.000000000  0.000000000     0.086469284  0.000000000  0.000000000
     0.000000000 11.564800263  0.000000000     0.000000000  0.086469284  0.000000000
     0.000000000  0.000000000 23.238399506     0.000000000  0.000000000  0.043032223

  length of vectors
    11.564800263 11.564800263 23.238399506     0.086469284  0.086469284  0.043032223


 
 k-points in units of 2pi/SCALE and weight: KPOINTS                                 
   0.00000000  0.00000000  0.00000000       0.031
   0.02161732  0.00000000  0.00000000       0.125
   0.04323464  0.00000000  0.00000000       0.063
   0.02161732  0.02161732  0.00000000       0.125
   0.04323464  0.02161732  0.00000000       0.125
   0.04323464  0.04323464  0.00000000       0.031
   0.00000000  0.00000000  0.02151611       0.031
   0.02161732  0.00000000  0.02151611       0.125
   0.04323464  0.00000000  0.02151611       0.063
   0.02161732  0.02161732  0.02151611       0.125
   0.04323464  0.02161732  0.02151611       0.125
   0.04323464  0.04323464  0.02151611       0.031
 
 k-points in reciprocal lattice and weights: KPOINTS                                 
   0.00000000  0.00000000  0.00000000       0.031
   0.25000000  0.00000000  0.00000000       0.125
   0.50000000  0.00000000  0.00000000       0.063
   0.25000000  0.25000000  0.00000000       0.125
   0.50000000  0.25000000  0.00000000       0.125
   0.50000000  0.50000000  0.00000000       0.031
   0.00000000  0.00000000  0.50000000       0.031
   0.25000000  0.00000000  0.50000000       0.125
   0.50000000  0.00000000  0.50000000       0.063
   0.25000000  0.25000000  0.50000000       0.125
   0.50000000  0.25000000  0.50000000       0.125
   0.50000000  0.50000000  0.50000000       0.031
 
 position of ions in fractional coordinates (direct lattice) 
   0.00000000  0.25000000  0.12500000
   0.00000000  0.25000000  0.62500000
   0.00000000  0.75000000  0.12500000
   0.00000000  0.75000000  0.62500000
   0.50000000  0.25000000  0.12500000
   0.50000000  0.25000000  0.62500000
   0.50000000  0.75000000  0.12500000
   0.50000000  0.75000000  0.62500000
   0.00000000  0.00000000  0.00000000
   0.00000000  0.00000000  0.50000000
   0.00000000  0.50000000  0.00000000
   0.00000000  0.50000000  0.50000000
   0.50000000  0.00000000  0.00000000
   0.50000000  0.00000000  0.50000000
   0.50000000  0.50000000  0.00000000
   0.50000000  0.50000000  0.50000000
   0.25000000  0.00000000  0.37500000
   0.25000000  0.00000000  0.87500000
   0.25000000  0.50000000  0.37500000
   0.25000000  0.50000000  0.87500000
   0.75000000  0.00000000  0.37500000
   0.75000000  0.00000000  0.87500000
   0.75000000  0.50000000  0.37500000
   0.75000000  0.50000000  0.87500000
   0.25000000  0.25000000  0.25000000
   0.25000000  0.25000000  0.75000000
   0.25000000  0.75000000  0.25000000
   0.25000000  0.75000000  0.75000000
   0.75000000  0.25000000  0.25000000
   0.75000000  0.25000000  0.75000000
   0.75000000  0.75000000  0.25000000
   0.75000000  0.75000000  0.75000000
   0.00000000  0.25000000  0.37500000
   0.00000000  0.25000000  0.87500000
   0.00000000  0.75000000  0.37500000
   0.00000000  0.75000000  0.87500000
   0.50000000  0.25000000  0.37500000
   0.50000000  0.25000000  0.87500000
   0.50000000  0.75000000  0.37500000
   0.50000000  0.75000000  0.87500000
   0.00000000  0.00000000  0.25000000
   0.00000000  0.00000000  0.75000000
   0.00000000  0.50000000  0.25000000
   0.00000000  0.50000000  0.75000000
   0.50000000  0.00000000  0.25000000
   0.50000000  0.00000000  0.75000000
   0.50000000  0.50000000  0.25000000
   0.50000000  0.50000000  0.75000000
   0.25000000  0.00000000  0.12500000
   0.25000000  0.00000000  0.62500000
   0.25000000  0.50000000  0.12500000
   0.25000000  0.50000000  0.62500000
   0.75000000  0.00000000  0.12500000
   0.75000000  0.00000000  0.62500000
   0.75000000  0.50000000  0.12500000
   0.75000000  0.50000000  0.62500000
   0.25000000  0.25000000  0.00000000
   0.25000000  0.25000000  0.50000000
   0.25000000  0.75000000  0.00000000
   0.25000000  0.75000000  0.50000000
   0.75000000  0.25000000  0.00000000
   0.75000000  0.25000000  0.50000000
   0.75000000  0.75000000  0.00000000
   0.75000000  0.75000000  0.50000000
   0.37500000  0.13249999  0.18750000
   0.37500000  0.13249999  0.68750000
   0.37500000  0.63249999  0.18750000
   0.37500000  0.63249999  0.68750000
   0.87500000  0.13249999  0.18750000
   0.87500000  0.13249999  0.68750000
   0.87500000  0.63249999  0.18750000
   0.87500000  0.63249999  0.68750000
   0.12500000  0.38249999  0.43750000
   0.12500000  0.38249999  0.93750000
   0.12500000  0.88249999  0.43750000
   0.12500000  0.88249999  0.93750000
   0.62500000  0.38249999  0.43750000
   0.62500000  0.38249999  0.93750000
   0.62500000  0.88249999  0.43750000
   0.62500000  0.88249999  0.93750000
   0.12500000  0.36750001  0.18750000
   0.12500000  0.36750001  0.68750000
   0.12500000  0.86750001  0.18750000
   0.12500000  0.86750001  0.68750000
   0.62500000  0.36750001  0.18750000
   0.62500000  0.36750001  0.68750000
   0.62500000  0.86750001  0.18750000
   0.62500000  0.86750001  0.68750000
   0.37500000  0.11750000  0.43750000
   0.37500000  0.11750000  0.93750000
   0.37500000  0.61750001  0.43750000
   0.37500000  0.61750001  0.93750000
   0.87500000  0.11750000  0.43750000
   0.87500000  0.11750000  0.93750000
   0.87500000  0.61750001  0.43750000
   0.87500000  0.61750001  0.93750000
   0.11750000  0.12500000  0.06250000
   0.11750000  0.12500000  0.56250000
   0.11750000  0.62500000  0.06250000
   0.11750000  0.62500000  0.56250000
   0.61750001  0.12500000  0.06250000
   0.61750001  0.12500000  0.56250000
   0.61750001  0.62500000  0.06250000
   0.61750001  0.62500000  0.56250000
   0.38249999  0.37500000  0.06250000
   0.38249999  0.37500000  0.56250000
   0.38249999  0.87500000  0.06250000
   0.38249999  0.87500000  0.56250000
   0.88249999  0.37500000  0.06250000
   0.88249999  0.37500000  0.56250000
   0.88249999  0.87500000  0.06250000
   0.88249999  0.87500000  0.56250000
   0.36750001  0.37500000  0.31250000
   0.36750001  0.37500000  0.81250000
   0.36750001  0.87500000  0.31250000
   0.36750001  0.87500000  0.81250000
   0.86750001  0.37500000  0.31250000
   0.86750001  0.37500000  0.81250000
   0.86750001  0.87500000  0.31250000
   0.86750001  0.87500000  0.81250000
   0.13249999  0.12500000  0.31250000
   0.13249999  0.12500000  0.81250000
   0.13249999  0.62500000  0.31250000
   0.13249999  0.62500000  0.81250000
   0.63249999  0.12500000  0.31250000
   0.63249999  0.12500000  0.81250000
   0.63249999  0.62500000  0.31250000
   0.63249999  0.62500000  0.81250000
 
 position of ions in cartesian coordinates  (Angst):
   0.00000000  2.89120007  2.90479994
   0.00000000  2.89120007 14.52399969
   0.00000000  8.67360020  2.90479994
   0.00000000  8.67360020 14.52399969
   5.78240013  2.89120007  2.90479994
   5.78240013  2.89120007 14.52399969
   5.78240013  8.67360020  2.90479994
   5.78240013  8.67360020 14.52399969
   0.00000000  0.00000000  0.00000000
   0.00000000  0.00000000 11.61919975
   0.00000000  5.78240013  0.00000000
   0.00000000  5.78240013 11.61919975
   5.78240013  0.00000000  0.00000000
   5.78240013  0.00000000 11.61919975
   5.78240013  5.78240013  0.00000000
   5.78240013  5.78240013 11.61919975
   2.89120007  0.00000000  8.71439981
   2.89120007  0.00000000 20.33359957
   2.89120007  5.78240013  8.71439981
   2.89120007  5.78240013 20.33359957
   8.67360020  0.00000000  8.71439981
   8.67360020  0.00000000 20.33359957
   8.67360020  5.78240013  8.71439981
   8.67360020  5.78240013 20.33359957
   2.89120007  2.89120007  5.80959988
   2.89120007  2.89120007 17.42879963
   2.89120007  8.67360020  5.80959988
   2.89120007  8.67360020 17.42879963
   8.67360020  2.89120007  5.80959988
   8.67360020  2.89120007 17.42879963
   8.67360020  8.67360020  5.80959988
   8.67360020  8.67360020 17.42879963
   0.00000000  2.89120007  8.71439981
   0.00000000  2.89120007 20.33359957
   0.00000000  8.67360020  8.71439981
   0.00000000  8.67360020 20.33359957
   5.78240013  2.89120007  8.71439981
   5.78240013  2.89120007 20.33359957
   5.78240013  8.67360020  8.71439981
   5.78240013  8.67360020 20.33359957
   0.00000000  0.00000000  5.80959988
   0.00000000  0.00000000 17.42879963
   0.00000000  5.78240013  5.80959988
   0.00000000  5.78240013 17.42879963
   5.78240013  0.00000000  5.80959988
   5.78240013  0.00000000 17.42879963
   5.78240013  5.78240013  5.80959988
   5.78240013  5.78240013 17.42879963
   2.89120007  0.00000000  2.90479994
   2.89120007  0.00000000 14.52399969
   2.89120007  5.78240013  2.90479994
   2.89120007  5.78240013 14.52399969
   8.67360020  0.00000000  2.90479994
   8.67360020  0.00000000 14.52399969
   8.67360020  5.78240013  2.90479994
   8.67360020  5.78240013 14.52399969
   2.89120007  2.89120007  0.00000000
   2.89120007  2.89120007 11.61919975
   2.89120007  8.67360020  0.00000000
   2.89120007  8.67360020 11.61919975
   8.67360020  2.89120007  0.00000000
   8.67360020  2.89120007 11.61919975
   8.67360020  8.67360020  0.00000000
   8.67360020  8.67360020 11.61919975
   4.33680010  1.53233595  4.35719991
   4.33680010  1.53233595 15.97639966
   4.33680010  7.31473609  4.35719991
   4.33680010  7.31473609 15.97639966
  10.11920023  1.53233595  4.35719991
  10.11920023  1.53233595 15.97639966
  10.11920023  7.31473609  4.35719991
  10.11920023  7.31473609 15.97639966
   1.44560003  4.42353602 10.16679978
   1.44560003  4.42353602 21.78599954
   1.44560003 10.20593615 10.16679978
   1.44560003 10.20593615 21.78599954
   7.22800016  4.42353602 10.16679978
   7.22800016  4.42353602 21.78599954
   7.22800016 10.20593615 10.16679978
   7.22800016 10.20593615 21.78599954
   1.44560003  4.25006418  4.35719991
   1.44560003  4.25006418 15.97639966
   1.44560003 10.03246431  4.35719991
   1.44560003 10.03246431 15.97639966
   7.22800016  4.25006418  4.35719991
   7.22800016  4.25006418 15.97639966
   7.22800016 10.03246431  4.35719991
   7.22800016 10.03246431 15.97639966
   4.33680010  1.35886403 10.16679978
   4.33680010  1.35886403 21.78599954
   4.33680010  7.14126424 10.16679978
   4.33680010  7.14126424 21.78599954
  10.11920023  1.35886403 10.16679978
  10.11920023  1.35886403 21.78599954
  10.11920023  7.14126424 10.16679978
  10.11920023  7.14126424 21.78599954
   1.35886403  1.44560003  1.45239997
   1.35886403  1.44560003 13.07159972
   1.35886403  7.22800016  1.45239997
   1.35886403  7.22800016 13.07159972
   7.14126424  1.44560003  1.45239997
   7.14126424  1.44560003 13.07159972
   7.14126424  7.22800016  1.45239997
   7.14126424  7.22800016 13.07159972
   4.42353602  4.33680010  1.45239997
   4.42353602  4.33680010 13.07159972
   4.42353602 10.11920023  1.45239997
   4.42353602 10.11920023 13.07159972
  10.20593615  4.33680010  1.45239997
  10.20593615  4.33680010 13.07159972
  10.20593615 10.11920023  1.45239997
  10.20593615 10.11920023 13.07159972
   4.25006418  4.33680010  7.26199985
   4.25006418  4.33680010 18.88119960
   4.25006418 10.11920023  7.26199985
   4.25006418 10.11920023 18.88119960
  10.03246431  4.33680010  7.26199985
  10.03246431  4.33680010 18.88119960
  10.03246431 10.11920023  7.26199985
  10.03246431 10.11920023 18.88119960
   1.53233595  1.44560003  7.26199985
   1.53233595  1.44560003 18.88119960
   1.53233595  7.22800016  7.26199985
   1.53233595  7.22800016 18.88119960
   7.31473609  1.44560003  7.26199985
   7.31473609  1.44560003 18.88119960
   7.31473609  7.22800016  7.26199985
   7.31473609  7.22800016 18.88119960
 


--------------------------------------------------------------------------------------------------------


 k-point     1 :   0.0000 0.0000 0.0000  plane waves:  103737
 k-point     2 :   0.2500 0.0000 0.0000  plane waves:  103664
 k-point     3 :   0.5000 0.0000 0.0000  plane waves:  103746
 k-point     4 :   0.2500 0.2500 0.0000  plane waves:  103733
 k-point     5 :   0.5000 0.2500 0.0000  plane waves:  103806
 k-point     6 :   0.5000 0.5000 0.0000  plane waves:  103776
 k-point     7 :   0.0000 0.0000 0.5000  plane waves:  103620
 k-point     8 :   0.2500 0.0000 0.5000  plane waves:  103670
 k-point     9 :   0.5000 0.0000 0.5000  plane waves:  103728
 k-point    10 :   0.2500 0.2500 0.5000  plane waves:  103756
 k-point    11 :   0.5000 0.2500 0.5000  plane waves:  103732
 k-point    12 :   0.5000 0.5000 0.5000  plane waves:  103688

 maximum and minimum number of plane-waves per node :    103806   103620

 maximum number of plane-waves:    103806
 maximum index in each direction: 
   IXMAX=   23   IYMAX=   23   IZMAX=   46
   IXMIN=  -23   IYMIN=  -23   IZMIN=  -46


 serial   3D FFT for wavefunctions
 parallel 3D FFT for charge:
    minimum data exchange during FFTs selected (reduces bandwidth)


 FFT grid for exact exchange (Hartree Fock) 
  NGX = 70; NGY = 70; NGZ =140

 
 Radii for the augmentation spheres in the non-local exchange
 for species   1 augmentation radius   1.218 (default was   1.005)
       energy cutoff for augmentation   2400.0
 for species   2 augmentation radius   1.347 (default was   1.077)
       energy cutoff for augmentation   2400.0
 for species   3 augmentation radius   1.152 (default was   1.081)
       energy cutoff for augmentation   2400.0
 Maximum index for augmentation-charges in exchange          2277
  SETUP_FOCK is finished

 total amount of memory used by VASP MPI-rank0 16335244. kBytes
=======================================================================

   base                                    :      30000. kBytes
   nonl-proj                               :     750724. kBytes
   fftplans                                :     483948. kBytes
   grid                                    :     980434. kBytes
   one-center                              :       1990. kBytes
   HF                                      :        194. kBytes
   nonlr-proj                              :      52584. kBytes
   wavefun                                 :   14035370. kBytes
 
     INWAV:  cpu time      0.0001: real time      0.0003
 initial charge density was supplied:
 charge density of overlapping atoms calculated
 number of electron    1152.0000000 magnetization 
 keeping initial charge density in first step


--------------------------------------------------------------------------------------------------------


 Maximum index for augmentation-charges         24086 (set IRDMAX)


--------------------------------------------------------------------------------------------------------


 First call to EWALD:  gamma=   0.121
 Maximum number of real-space cells   3x   3x   2
 Maximum number of reciprocal cells   2x   2x   4

    FEWALD:  cpu time      0.3590: real time      0.3602


--------------------------------------- Ionic step        1  -------------------------------------------




--------------------------------------- Iteration      1(   1)  ---------------------------------------


    POTLOK:  cpu time      0.0450: real time      0.0452
    SETDIJ:  cpu time      0.2502: real time      0.2638
     EDDAV:  cpu time     51.5900: real time     51.7989
       DOS:  cpu time      0.0019: real time      0.0019
    --------------------------------------------
      LOOP:  cpu time     51.8875: real time     52.1101

 eigenvalue-minimisations  : 16584
 total energy-change (2. order) :-0.6702369E+05  (-0.5169623E+05)
 number of electron    1152.0000000 magnetization 
 augmentation part     1152.0000000 magnetization 

 Free energy of the ion-electron system (eV)
  ---------------------------------------------------
  alpha Z        PSCENC =      3590.49188669
  Ewald energy   TEWEN  =    -75122.05347602
  -Hartree energ DENC   =    -36129.95408452
  -exchange      EXHF   =         0.00000000
  -V(xc)+E(xc)   XCENC  =      2689.61918491
  PAW double counting   =     80361.77678867  -162278.69869501
  entropy T*S    EENTRO =        -0.00098635
  eigenvalues    EBANDS =      8764.52664351
  atomic energy  EATOM  =    111100.60618623
  Solvation  Ediel_sol  =         0.00000000
  ---------------------------------------------------
  free energy    TOTEN  =    -67023.68655189 eV

  energy without entropy =   -67023.68556554  energy(sigma->0) =   -67023.68605871
  exchange ACFDT corr.  =         0.00000000  see jH, gK, PRB 81, 115126


--------------------------------------------------------------------------------------------------------




--------------------------------------- Iteration      1(   2)  ---------------------------------------


     EDDAV:  cpu time     51.4975: real time     51.7162
       DOS:  cpu time      0.0020: real time      0.0020
    --------------------------------------------
      LOOP:  cpu time     51.4995: real time     51.7182

 eigenvalue-minimisations  : 16584
 total energy-change (2. order) :-0.1195392E+05  (-0.1169628E+05)
 number of electron    1152.0000000 magnetization 
 augmentation part     1152.0000000 magnetization 

 Free energy of the ion-electron system (eV)
  ---------------------------------------------------
  alpha Z        PSCENC =      3590.49188669
  Ewald energy   TEWEN  =    -75122.05347602
  -Hartree energ DENC   =    -36129.95408452
  -exchange      EXHF   =         0.00000000
  -V(xc)+E(xc)   XCENC  =      2689.61918491
  PAW double counting   =     80361.77678867  -162278.69869501
  entropy T*S    EENTRO =        -0.00103885
  eigenvalues    EBANDS =     -3189.39615906
  atomic energy  EATOM  =    111100.60618623
  Solvation  Ediel_sol  =         0.00000000
  ---------------------------------------------------
  free energy    TOTEN  =    -78977.60940695 eV

  energy without entropy =   -78977.60836811  energy(sigma->0) =   -78977.60888753
  exchange ACFDT corr.  =         0.00000000  see jH, gK, PRB 81, 115126


--------------------------------------------------------------------------------------------------------




--------------------------------------- Iteration      1(   3)  ---------------------------------------


     EDDAV:  cpu time     53.2717: real time     53.5035
       DOS:  cpu time      0.0011: real time      0.0011
    --------------------------------------------
      LOOP:  cpu time     53.2728: real time     53.5046

 eigenvalue-minimisations  : 17350
 total energy-change (2. order) :-0.2830232E+04  (-0.2650468E+04)
 number of electron    1152.0000000 magnetization 
 augmentation part     1152.0000000 magnetization 

 Free energy of the ion-electron system (eV)
  ---------------------------------------------------
  alpha Z        PSCENC =      3590.49188669
  Ewald energy   TEWEN  =    -75122.05347602
  -Hartree energ DENC   =    -36129.95408452
  -exchange      EXHF   =         0.00000000
  -V(xc)+E(xc)   XCENC  =      2689.61918491
  PAW double counting   =     80361.77678867  -162278.69869501
  entropy T*S    EENTRO =        -0.00000000
  eigenvalues    EBANDS =     -6019.62906060
  atomic energy  EATOM  =    111100.60618623
  Solvation  Ediel_sol  =         0.00000000
  ---------------------------------------------------
  free energy    TOTEN  =    -81807.84126965 eV

  energy without entropy =   -81807.84126965  energy(sigma->0) =   -81807.84126965
  exchange ACFDT corr.  =         0.00000000  see jH, gK, PRB 81, 115126


--------------------------------------------------------------------------------------------------------




--------------------------------------- Iteration      1(   4)  ---------------------------------------


     EDDAV:  cpu time     58.9794: real time     59.2242
       DOS:  cpu time      0.0012: real time      0.0012
    --------------------------------------------
      LOOP:  cpu time     58.9807: real time     59.2276

 eigenvalue-minimisations  : 19656
 total energy-change (2. order) :-0.3644269E+03  (-0.3566506E+03)
 number of electron    1152.0000000 magnetization 
 augmentation part     1152.0000000 magnetization 

 Free energy of the ion-electron system (eV)
  ---------------------------------------------------
  alpha Z        PSCENC =      3590.49188669
  Ewald energy   TEWEN  =    -75122.05347602
  -Hartree energ DENC   =    -36129.95408452
  -exchange      EXHF   =         0.00000000
  -V(xc)+E(xc)   XCENC  =      2689.61918491
  PAW double counting   =     80361.77678867  -162278.69869501
  entropy T*S    EENTRO =        -0.00000000
  eigenvalues    EBANDS =     -6384.05598941
  atomic energy  EATOM  =    111100.60618623
  Solvation  Ediel_sol  =         0.00000000
  ---------------------------------------------------
  free energy    TOTEN  =    -82172.26819846 eV

  energy without entropy =   -82172.26819846  energy(sigma->0) =   -82172.26819846
  exchange ACFDT corr.  =         0.00000000  see jH, gK, PRB 81, 115126


--------------------------------------------------------------------------------------------------------




--------------------------------------- Iteration      1(   5)  ---------------------------------------


    POTLOK:  cpu time     12.1193: real time     12.1499
    SETDIJ:  cpu time      0.4665: real time      0.4679
     EDDAV:  cpu time   2100.3100: real time   2107.4223
       DOS:  cpu time      0.0011: real time      0.0011
    CHARGE:  cpu time      3.6922: real time      3.7203
    MIXING:  cpu time      0.0429: real time      0.0430
    --------------------------------------------
      LOOP:  cpu time   2116.6316: real time   2123.8019

 eigenvalue-minimisations  : 20096
 total energy-change (2. order) : 0.8149877E+05  (-0.6578058E+02)
 number of electron    1151.9999780 magnetization 
 augmentation part      394.1642124 magnetization 

 Free energy of the ion-electron system (eV)
  ---------------------------------------------------
  alpha Z        PSCENC =      3590.49188669
  Ewald energy   TEWEN  =    -75122.05347602
  -Hartree energ DENC   =    -36129.95408452
  -exchange      EXHF   =      2663.24070540
  -V(xc)+E(xc)   XCENC  =      2001.70111127
  PAW double counting   =     80981.54612387   -84139.69796555
  entropy T*S    EENTRO =        -0.00000000
  eigenvalues    EBANDS =     -5619.38101508
  atomic energy  EATOM  =    111100.60618623
  Solvation  Ediel_sol  =         0.00000000
  ---------------------------------------------------
  free energy    TOTEN  =      -673.50052770 eV

  energy without entropy =     -673.50052770  energy(sigma->0) =     -673.50052770
  exchange ACFDT corr.  =         0.00000000  see jH, gK, PRB 81, 115126


--------------------------------------------------------------------------------------------------------




--------------------------------------- Iteration      1(   6)  ---------------------------------------


    POTLOK:  cpu time     12.2430: real time     12.2760
    SETDIJ:  cpu time      0.4651: real time      0.4663
     EDDAV:  cpu time   2105.5774: real time   2114.0243
       DOS:  cpu time      0.0013: real time      0.0013
    CHARGE:  cpu time      3.6621: real time      3.6888
    MIXING:  cpu time      0.0429: real time      0.0430
    --------------------------------------------
      LOOP:  cpu time   2121.9917: real time   2130.4996

 eigenvalue-minimisations  : 23560
 total energy-change (2. order) : 0.4973375E+01  (-0.5542553E+01)
 number of electron    1151.9999650 magnetization 
 augmentation part      390.5699888 magnetization 

 Free energy of the ion-electron system (eV)
  ---------------------------------------------------
  alpha Z        PSCENC =      3590.49188669
  Ewald energy   TEWEN  =    -75122.05347602
  -Hartree energ DENC   =    -36161.92304014
  -exchange      EXHF   =      2598.11532839
  -V(xc)+E(xc)   XCENC  =      2009.41516120
  PAW double counting   =     82275.28772783   -85463.73576474
  entropy T*S    EENTRO =        -0.00000000
  eigenvalues    EBANDS =     -5494.73116254
  atomic energy  EATOM  =    111100.60618623
  Solvation  Ediel_sol  =         0.00000000
  ---------------------------------------------------
  free energy    TOTEN  =      -668.52715311 eV

  energy without entropy =     -668.52715311  energy(sigma->0) =     -668.52715311
  exchange ACFDT corr.  =         0.00000000  see jH, gK, PRB 81, 115126


--------------------------------------------------------------------------------------------------------




--------------------------------------- Iteration      1(   7)  ---------------------------------------


    POTLOK:  cpu time     12.1290: real time     12.1670
    SETDIJ:  cpu time      0.4691: real time      0.4736
     EDDAV:  cpu time   2109.2659: real time   2116.2421
       DOS:  cpu time      0.0016: real time      0.0059
    CHARGE:  cpu time      3.6807: real time      3.7080
    MIXING:  cpu time      0.0426: real time      0.0431
    --------------------------------------------
      LOOP:  cpu time   2125.5889: real time   2132.6397

 eigenvalue-minimisations  : 24048
 total energy-change (2. order) : 0.2773724E+01  (-0.2197912E+01)
 number of electron    1151.9999570 magnetization 
 augmentation part      394.3677338 magnetization 

 Free energy of the ion-electron system (eV)
  ---------------------------------------------------
  alpha Z        PSCENC =      3590.49188669
  Ewald energy   TEWEN  =    -75122.05347602
  -Hartree energ DENC   =    -35984.64355243
  -exchange      EXHF   =      2574.27733853
  -V(xc)+E(xc)   XCENC  =      2007.61880356
  PAW double counting   =     82773.33281794   -85921.03017985
  entropy T*S    EENTRO =        -0.00000000
  eigenvalues    EBANDS =     -5684.35325384
  atomic energy  EATOM  =    111100.60618623
  Solvation  Ediel_sol  =         0.00000000
  ---------------------------------------------------
  free energy    TOTEN  =      -665.75342919 eV

  energy without entropy =     -665.75342919  energy(sigma->0) =     -665.75342919
  exchange ACFDT corr.  =         0.00000000  see jH, gK, PRB 81, 115126


--------------------------------------------------------------------------------------------------------




--------------------------------------- Iteration      1(   8)  ---------------------------------------


    POTLOK:  cpu time     12.1825: real time     12.2247
    SETDIJ:  cpu time      0.4653: real time      0.4677
     EDDAV:  cpu time   2100.1192: real time   2107.0713
       DOS:  cpu time      0.0013: real time      0.0017
    CHARGE:  cpu time      3.6713: real time      3.6851
    MIXING:  cpu time      0.0417: real time      0.0422
    --------------------------------------------
      LOOP:  cpu time   2116.4813: real time   2123.4927

 eigenvalue-minimisations  : 19560
 total energy-change (2. order) :-0.4439043E+00  (-0.7593610E+00)
 number of electron    1151.9999522 magnetization 
 augmentation part      394.5174407 magnetization 

 Free energy of the ion-electron system (eV)
  ---------------------------------------------------
  alpha Z        PSCENC =      3590.49188669
  Ewald energy   TEWEN  =    -75122.05347602
  -Hartree energ DENC   =    -35997.64548107
  -exchange      EXHF   =      2578.95995093
  -V(xc)+E(xc)   XCENC  =      2010.10038854
  PAW double counting   =     83307.93535998   -86497.30690146
  entropy T*S    EENTRO =        -0.00000000
  eigenvalues    EBANDS =     -5637.28524733
  atomic energy  EATOM  =    111100.60618623
  Solvation  Ediel_sol  =         0.00000000
  ---------------------------------------------------
  free energy    TOTEN  =      -666.19733351 eV

  energy without entropy =     -666.19733351  energy(sigma->0) =     -666.19733351
  exchange ACFDT corr.  =         0.00000000  see jH, gK, PRB 81, 115126


--------------------------------------------------------------------------------------------------------




--------------------------------------- Iteration      1(   9)  ---------------------------------------


    POTLOK:  cpu time     12.0911: real time     12.1443
    SETDIJ:  cpu time      0.4657: real time      0.4668
     EDDAV:  cpu time   2100.5022: real time   2107.6658
       DOS:  cpu time      0.0013: real time      0.0020
    CHARGE:  cpu time      3.6641: real time      3.6730
    MIXING:  cpu time      0.0430: real time      0.0435
    --------------------------------------------
      LOOP:  cpu time   2116.7673: real time   2123.9955

 eigenvalue-minimisations  : 20728
 total energy-change (2. order) : 0.4576560E-01  (-0.5141762E-01)
 number of electron    1151.9999494 magnetization 
 augmentation part      393.9801244 magnetization 

 Free energy of the ion-electron system (eV)
  ---------------------------------------------------
  alpha Z        PSCENC =      3590.49188669
  Ewald energy   TEWEN  =    -75122.05347602
  -Hartree energ DENC   =    -35997.48483148
  -exchange      EXHF   =      2574.92385064
  -V(xc)+E(xc)   XCENC  =      2011.02229549
  PAW double counting   =     83656.37477020   -86870.12813207
  entropy T*S    EENTRO =        -0.00000000
  eigenvalues    EBANDS =     -5609.90411758
  atomic energy  EATOM  =    111100.60618623
  Solvation  Ediel_sol  =         0.00000000
  ---------------------------------------------------
  free energy    TOTEN  =      -666.15156791 eV

  energy without entropy =     -666.15156791  energy(sigma->0) =     -666.15156791
  exchange ACFDT corr.  =         0.00000000  see jH, gK, PRB 81, 115126


--------------------------------------------------------------------------------------------------------




--------------------------------------- Iteration      1(  10)  ---------------------------------------


    POTLOK:  cpu time     12.0349: real time     12.0830
    SETDIJ:  cpu time      0.4647: real time      0.4669
     EDDAV:  cpu time   2106.3225: real time   2166.6073
       DOS:  cpu time      0.0013: real time      0.0016
    CHARGE:  cpu time      3.6635: real time      3.6724
    MIXING:  cpu time      0.0417: real time      0.0422
    --------------------------------------------
      LOOP:  cpu time   2122.5286: real time   2182.8735

 eigenvalue-minimisations  : 22296
 total energy-change (2. order) : 0.5533180E-01  (-0.1754839E-01)
 number of electron    1151.9999477 magnetization 
 augmentation part      394.0289924 magnetization 

 Free energy of the ion-electron system (eV)
  ---------------------------------------------------
  alpha Z        PSCENC =      3590.49188669
  Ewald energy   TEWEN  =    -75122.05347602
  -Hartree energ DENC   =    -35977.96914537
  -exchange      EXHF   =      2572.77015417
  -V(xc)+E(xc)   XCENC  =      2010.92387935
  PAW double counting   =     83835.52737307   -87057.22367692
  entropy T*S    EENTRO =        -0.00000000
  eigenvalues    EBANDS =     -5619.16941731
  atomic energy  EATOM  =    111100.60618623
  Solvation  Ediel_sol  =         0.00000000
  ---------------------------------------------------
  free energy    TOTEN  =      -666.09623611 eV

  energy without entropy =     -666.09623611  energy(sigma->0) =     -666.09623611
  exchange ACFDT corr.  =         0.00000000  see jH, gK, PRB 81, 115126


--------------------------------------------------------------------------------------------------------




--------------------------------------- Iteration      1(  11)  ---------------------------------------


    POTLOK:  cpu time     12.2478: real time     12.2763
    SETDIJ:  cpu time      0.4650: real time      0.4661
     EDDAV:  cpu time   2101.3833: real time   2109.5333
       DOS:  cpu time      0.0013: real time      0.0023
    CHARGE:  cpu time      3.6663: real time      3.6758
    MIXING:  cpu time      0.0430: real time      0.0437
    --------------------------------------------
      LOOP:  cpu time   2117.8067: real time   2125.9974

 eigenvalue-minimisations  : 21368
 total energy-change (2. order) : 0.9010709E-02  (-0.4806393E-02)
 number of electron    1151.9999467 magnetization 
 augmentation part      393.9509632 magnetization 

 Free energy of the ion-electron system (eV)
  ---------------------------------------------------
  alpha Z        PSCENC =      3590.49188669
  Ewald energy   TEWEN  =    -75122.05347602
  -Hartree energ DENC   =    -35972.61719043
  -exchange      EXHF   =      2573.56619926
  -V(xc)+E(xc)   XCENC  =      2011.09983028
  PAW double counting   =     83947.72621535   -87177.83683668
  entropy T*S    EENTRO =        -0.00000000
  eigenvalues    EBANDS =     -5617.07004007
  atomic energy  EATOM  =    111100.60618623
  Solvation  Ediel_sol  =         0.00000000
  ---------------------------------------------------
  free energy    TOTEN  =      -666.08722540 eV

  energy without entropy =     -666.08722540  energy(sigma->0) =     -666.08722540
  exchange ACFDT corr.  =         0.00000000  see jH, gK, PRB 81, 115126


--------------------------------------------------------------------------------------------------------




--------------------------------------- Iteration      1(  12)  ---------------------------------------


    POTLOK:  cpu time     12.1516: real time     12.1823
    SETDIJ:  cpu time      0.4642: real time      0.4665
     EDDAV:  cpu time   2098.3760: real time   2106.2433
       DOS:  cpu time      0.0012: real time      0.0017
    CHARGE:  cpu time      3.6754: real time      3.6978
    MIXING:  cpu time      0.0414: real time      0.0419
    --------------------------------------------
      LOOP:  cpu time   2114.7097: real time   2122.6336

 eigenvalue-minimisations  : 20384
 total energy-change (2. order) :-0.8901095E-03  (-0.1003013E-02)
 number of electron    1151.9999460 magnetization 
 augmentation part      393.9330520 magnetization 

 Free energy of the ion-electron system (eV)
  ---------------------------------------------------
  alpha Z        PSCENC =      3590.49188669
  Ewald energy   TEWEN  =    -75122.05347602
  -Hartree energ DENC   =    -35969.08836569
  -exchange      EXHF   =      2573.75773200
  -V(xc)+E(xc)   XCENC  =      2011.21100232
  PAW double counting   =     84012.92287998   -87247.18014371
  entropy T*S    EENTRO =        -0.00000000
  eigenvalues    EBANDS =     -5616.75581732
  atomic energy  EATOM  =    111100.60618623
  Solvation  Ediel_sol  =         0.00000000
  ---------------------------------------------------
  free energy    TOTEN  =      -666.08811551 eV

  energy without entropy =     -666.08811551  energy(sigma->0) =     -666.08811551
  exchange ACFDT corr.  =         0.00000000  see jH, gK, PRB 81, 115126


--------------------------------------------------------------------------------------------------------




--------------------------------------- Iteration      1(  13)  ---------------------------------------


    POTLOK:  cpu time     11.9632: real time     11.9945
    SETDIJ:  cpu time      0.4652: real time      0.4663
     EDDAV:  cpu time   2099.9093: real time   2107.6566
       DOS:  cpu time      0.0013: real time      0.0023
    CHARGE:  cpu time      3.6703: real time      3.6790
    MIXING:  cpu time      0.0430: real time      0.0435
    --------------------------------------------
      LOOP:  cpu time   2116.0522: real time   2123.8422

 eigenvalue-minimisations  : 20656
 total energy-change (2. order) :-0.1309232E-02  (-0.2143340E-03)
 number of electron    1151.9999457 magnetization 
 augmentation part      393.9339780 magnetization 

 Free energy of the ion-electron system (eV)
  ---------------------------------------------------
  alpha Z        PSCENC =      3590.49188669
  Ewald energy   TEWEN  =    -75122.05347602
  -Hartree energ DENC   =    -35967.47944341
  -exchange      EXHF   =      2573.87625433
  -V(xc)+E(xc)   XCENC  =      2011.30057291
  PAW double counting   =     84052.01788997   -87288.71412257
  entropy T*S    EENTRO =        -0.00000000
  eigenvalues    EBANDS =     -5616.13517287
  atomic energy  EATOM  =    111100.60618623
  Solvation  Ediel_sol  =         0.00000000
  ---------------------------------------------------
  free energy    TOTEN  =      -666.08942474 eV

  energy without entropy =     -666.08942474  energy(sigma->0) =     -666.08942474
  exchange ACFDT corr.  =         0.00000000  see jH, gK, PRB 81, 115126


--------------------------------------------------------------------------------------------------------




--------------------------------------- Iteration      1(  14)  ---------------------------------------


    POTLOK:  cpu time     12.0132: real time     12.0637
    SETDIJ:  cpu time      0.4651: real time      0.4676
     EDDAV:  cpu time   2097.9405: real time   2105.0778
       DOS:  cpu time      0.0012: real time      0.0017
    CHARGE:  cpu time      3.6709: real time      3.6825
    MIXING:  cpu time      0.0420: real time      0.0425
    --------------------------------------------
      LOOP:  cpu time   2114.1328: real time   2121.3358

 eigenvalue-minimisations  : 20120
 total energy-change (2. order) :-0.1031326E-02  (-0.1091694E-03)
 number of electron    1151.9999455 magnetization 
 augmentation part      393.9290508 magnetization 

 Free energy of the ion-electron system (eV)
  ---------------------------------------------------
  alpha Z        PSCENC =      3590.49188669
  Ewald energy   TEWEN  =    -75122.05347602
  -Hartree energ DENC   =    -35967.08266273
  -exchange      EXHF   =      2573.92291303
  -V(xc)+E(xc)   XCENC  =      2011.37231596
  PAW double counting   =     84076.33077623   -87314.62201144
  entropy T*S    EENTRO =        -0.00000000
  eigenvalues    EBANDS =     -5615.05638402
  atomic energy  EATOM  =    111100.60618623
  Solvation  Ediel_sol  =         0.00000000
  ---------------------------------------------------
  free energy    TOTEN  =      -666.09045607 eV

  energy without entropy =     -666.09045607  energy(sigma->0) =     -666.09045607
  exchange ACFDT corr.  =         0.00000000  see jH, gK, PRB 81, 115126


--------------------------------------------------------------------------------------------------------




--------------------------------------- Iteration      1(  15)  ---------------------------------------


    POTLOK:  cpu time     12.1581: real time     12.1931
    SETDIJ:  cpu time      0.4650: real time      0.4785
     EDDAV:  cpu time   2095.2246: real time   2102.3759
       DOS:  cpu time      0.0013: real time      0.0022
    CHARGE:  cpu time      3.6713: real time      3.6841
    MIXING:  cpu time      0.0430: real time      0.0435
    --------------------------------------------
      LOOP:  cpu time   2111.5632: real time   2118.7774

 eigenvalue-minimisations  : 18512
 total energy-change (2. order) :-0.7197375E-03  (-0.5733245E-04)
 number of electron    1151.9999453 magnetization 
[...]
   0.926E-04 -.736E+01 -.828E-04   -.621E-06 0.950E+01 -.157E-07   -.612E-19 -.141E+01 0.122E-17   -.148E-03 -.669E-04 0.139E-03
   -.379E-04 0.736E+01 -.480E-04   0.110E-05 -.950E+01 -.521E-07   -.356E-18 0.141E+01 0.569E-18   0.535E-04 0.126E-03 0.990E-04
   0.150E-04 0.736E+01 -.320E-04   0.110E-05 -.950E+01 -.521E-07   0.372E-19 0.141E+01 -.163E-18   -.154E-04 -.952E-04 0.441E-04
   -.101E-03 0.736E+01 -.107E-03   0.110E-05 -.950E+01 -.521E-07   0.110E-18 0.141E+01 0.138E-17   0.150E-03 0.731E-04 0.165E-03
   0.526E-04 0.736E+01 0.320E-04   0.110E-05 -.950E+01 -.521E-07   -.213E-18 0.141E+01 0.813E-19   -.737E-04 0.346E-04 -.357E-04
   -.116E-04 0.736E+01 -.140E-04   -.621E-06 -.950E+01 0.157E-07   -.158E-18 0.141E+01 0.000E+00   0.400E-04 -.226E-04 0.374E-04
   -.681E-04 0.736E+01 -.703E-04   -.621E-06 -.950E+01 0.157E-07   0.156E-18 0.141E+01 -.813E-19   0.104E-03 0.945E-04 0.100E-03
   0.114E-04 0.736E+01 0.210E-05   -.621E-06 -.950E+01 0.157E-07   -.131E-18 0.141E+01 -.298E-18   0.430E-05 0.326E-04 -.461E-05
   -.782E-04 0.736E+01 -.808E-04   -.621E-06 -.950E+01 0.157E-07   0.906E-19 0.141E+01 -.163E-17   0.115E-03 0.508E-04 0.140E-03
   0.797E-04 0.736E+01 0.103E-03   -.479E-06 -.950E+01 0.876E-06   0.421E-18 0.141E+01 0.325E-18   -.125E-03 0.619E-04 -.160E-03
   -.876E-04 0.736E+01 -.747E-04   -.479E-06 -.950E+01 0.876E-06   -.495E-18 0.141E+01 0.542E-19   0.147E-03 0.113E-03 0.120E-03
   -.189E-04 0.736E+01 0.184E-04   -.479E-06 -.950E+01 0.876E-06   0.767E-19 0.141E+01 0.678E-18   0.326E-04 0.157E-03 -.170E-04
   -.283E-04 0.736E+01 -.323E-04   -.479E-06 -.950E+01 0.876E-06   -.147E-18 0.141E+01 0.515E-18   0.462E-04 -.509E-04 0.376E-04
   -.215E-05 0.736E+01 0.210E-04   -.428E-06 -.950E+01 -.963E-06   0.316E-18 0.141E+01 0.949E-18   -.114E-04 -.239E-04 -.275E-04
   0.910E-05 0.736E+01 0.106E-04   -.428E-06 -.950E+01 -.963E-06   -.348E-18 0.141E+01 0.867E-18   0.639E-05 0.258E-03 -.119E-04
   0.293E-04 0.736E+01 0.807E-05   -.428E-06 -.950E+01 -.963E-06   -.131E-18 0.141E+01 -.732E-18   -.467E-04 0.183E-03 -.155E-04
   -.155E-04 0.736E+01 -.244E-05   -.428E-06 -.950E+01 -.963E-06   0.879E-19 0.141E+01 0.190E-18   0.377E-04 -.900E-04 0.177E-04
   0.736E+01 -.177E-04 0.215E-04   -.950E+01 0.110E-05 -.521E-07   0.141E+01 0.407E-18 -.732E-18   0.198E-03 0.695E-05 -.443E-04
   0.736E+01 -.409E-05 -.126E-04   -.950E+01 0.110E-05 -.521E-07   0.141E+01 0.339E-18 0.000E+00   -.746E-04 0.184E-04 0.555E-05
   0.736E+01 0.982E-04 0.956E-04   -.950E+01 -.621E-06 0.157E-07   0.141E+01 -.325E-18 -.352E-18   0.756E-04 -.163E-03 -.171E-03
   0.736E+01 -.718E-04 -.779E-04   -.950E+01 -.621E-06 0.157E-07   0.141E+01 0.718E-18 -.813E-18   0.270E-04 0.118E-03 0.107E-03
   0.736E+01 -.448E-06 0.212E-04   -.950E+01 0.110E-05 -.521E-07   0.141E+01 0.176E-18 -.813E-19   -.366E-04 -.193E-04 -.531E-04
   0.736E+01 -.149E-04 0.167E-04   -.950E+01 0.110E-05 -.521E-07   0.141E+01 -.271E-18 0.130E-17   0.233E-03 0.186E-04 -.278E-04
   0.736E+01 0.381E-04 0.351E-04   -.950E+01 -.621E-06 0.157E-07   0.141E+01 0.203E-18 -.840E-18   -.104E-04 -.568E-04 -.537E-04
   0.736E+01 0.347E-05 0.241E-05   -.950E+01 -.621E-06 0.157E-07   0.141E+01 -.651E-18 0.163E-18   0.188E-03 -.407E-05 -.259E-04
   -.736E+01 -.126E-04 0.528E-04   0.950E+01 -.479E-06 -.876E-06   -.141E+01 -.257E-18 0.298E-18   0.466E-04 0.260E-04 -.786E-04
   -.736E+01 0.734E-05 -.131E-05   0.950E+01 -.479E-06 -.876E-06   -.141E+01 -.813E-18 -.165E-17   -.156E-03 0.306E-05 -.247E-04
   -.736E+01 -.292E-04 0.107E-04   0.950E+01 -.428E-06 0.963E-06   -.141E+01 -.678E-19 -.122E-17   0.552E-04 0.545E-04 -.437E-04
   -.736E+01 0.289E-05 0.956E-05   0.950E+01 -.428E-06 0.963E-06   -.141E+01 0.529E-18 0.211E-17   -.189E-03 -.137E-04 -.176E-04
   -.736E+01 -.831E-04 0.112E-03   0.950E+01 -.479E-06 -.876E-06   -.141E+01 -.678E-19 0.759E-18   -.108E-03 0.139E-03 -.189E-03
   -.736E+01 0.924E-04 -.756E-04   0.950E+01 -.479E-06 -.876E-06   -.141E+01 0.244E-18 0.488E-18   -.611E-04 -.143E-03 0.108E-03
   -.736E+01 0.621E-05 0.702E-05   0.950E+01 -.428E-06 0.963E-06   -.141E+01 0.759E-18 -.407E-18   -.221E-03 0.137E-04 -.213E-04
   -.736E+01 -.905E-05 -.388E-05   0.950E+01 -.428E-06 0.963E-06   -.141E+01 -.298E-18 0.678E-18   0.255E-04 0.577E-06 -.813E-05
   0.736E+01 0.676E-04 0.442E-04   -.950E+01 -.479E-06 0.876E-06   0.141E+01 -.176E-18 0.138E-17   0.121E-03 -.907E-04 -.496E-04
   0.736E+01 0.333E-04 -.121E-04   -.950E+01 -.479E-06 0.876E-06   0.141E+01 0.203E-18 0.108E-17   -.303E-04 -.621E-04 0.410E-05
   0.736E+01 -.764E-05 0.412E-05   -.950E+01 -.428E-06 -.963E-06   0.141E+01 0.393E-18 0.813E-19   -.414E-04 -.369E-05 0.131E-04
   0.736E+01 0.190E-04 0.401E-04   -.950E+01 -.428E-06 -.963E-06   0.141E+01 -.176E-18 0.130E-17   0.132E-03 -.356E-04 -.752E-04
   0.736E+01 0.739E-04 0.623E-04   -.950E+01 -.479E-06 0.876E-06   0.141E+01 0.136E-19 -.144E-17   0.219E-04 -.107E-03 -.107E-03
   0.736E+01 0.531E-05 -.314E-04   -.950E+01 -.479E-06 0.876E-06   0.141E+01 0.393E-18 -.705E-18   0.567E-04 -.171E-04 0.605E-04
   0.736E+01 -.484E-04 -.496E-04   -.950E+01 -.428E-06 -.963E-06   0.141E+01 -.285E-18 0.461E-18   -.199E-04 0.668E-04 0.799E-04
   0.736E+01 0.878E-04 0.964E-04   -.950E+01 -.428E-06 -.963E-06   0.141E+01 0.407E-19 -.325E-18   0.707E-04 -.141E-03 -.140E-03
   -.736E+01 0.524E-04 -.645E-04   0.950E+01 0.110E-05 0.521E-07   -.141E+01 0.407E-18 0.542E-18   -.174E-04 -.661E-04 0.956E-04
   -.736E+01 -.130E-03 0.926E-04   0.950E+01 0.110E-05 0.521E-07   -.141E+01 -.285E-18 0.125E-17   -.731E-04 0.196E-03 -.136E-03
   -.736E+01 -.779E-04 0.791E-04   0.950E+01 -.621E-06 -.157E-07   -.141E+01 -.407E-18 0.623E-18   -.695E-04 0.109E-03 -.119E-03
   -.736E+01 0.396E-04 -.281E-04   0.950E+01 -.621E-06 -.157E-07   -.141E+01 0.217E-18 0.542E-19   -.498E-04 -.394E-04 0.496E-04
   -.736E+01 -.114E-04 -.183E-05   0.950E+01 0.110E-05 0.521E-07   -.141E+01 0.244E-18 -.379E-18   0.691E-04 0.210E-04 0.134E-04
   -.736E+01 -.692E-04 0.317E-04   0.950E+01 0.110E-05 0.521E-07   -.141E+01 -.949E-19 -.352E-18   -.135E-03 0.972E-04 -.622E-04
   -.736E+01 -.428E-04 0.462E-04   0.950E+01 -.621E-06 -.157E-07   -.141E+01 0.149E-18 0.759E-18   -.709E-04 0.690E-04 -.539E-04
   -.736E+01 0.121E-04 0.292E-05   0.950E+01 -.621E-06 -.157E-07   -.141E+01 0.176E-18 0.786E-18   0.297E-04 0.580E-05 -.138E-04
 -----------------------------------------------------------------------------------------------
   0.421E-04 0.108E-03 0.441E-05   0.703E-12 0.215E-13 -.291E-12   0.511E-14 -.444E-14 0.125E-16   0.343E-04 -.836E-05 0.834E-05
 
 
 POSITION                                       TOTAL-FORCE (eV/Angst)
 -----------------------------------------------------------------------------------
      0.00000      2.89120      2.90480        -0.000000      0.000000      0.000000
      0.00000      2.89120     14.52400        -0.000000      0.000000     -0.000000
      0.00000      8.67360      2.90480        -0.000000      0.000000     -0.000000
      0.00000      8.67360     14.52400        -0.000000      0.000000      0.000000
      5.78240      2.89120      2.90480        -0.000000      0.000000     -0.000000
      5.78240      2.89120     14.52400        -0.000000      0.000000     -0.000000
      5.78240      8.67360      2.90480        -0.000000      0.000000     -0.000000
      5.78240      8.67360     14.52400        -0.000000      0.000000      0.000000
      0.00000      0.00000      0.00000        -0.000000      0.000000     -0.000000
      0.00000      0.00000     11.61920        -0.000000      0.000000     -0.000000
      0.00000      5.78240      0.00000        -0.000000      0.000000     -0.000000
      0.00000      5.78240     11.61920        -0.000000      0.000000     -0.000000
      5.78240      0.00000      0.00000        -0.000000      0.000000     -0.000000
      5.78240      0.00000     11.61920        -0.000000      0.000000     -0.000000
      5.78240      5.78240      0.00000        -0.000000      0.000000     -0.000000
      5.78240      5.78240     11.61920        -0.000000      0.000000     -0.000000
      2.89120      0.00000      8.71440        -0.000000      0.000000     -0.000000
      2.89120      0.00000     20.33360        -0.000000      0.000000     -0.000000
      2.89120      5.78240      8.71440        -0.000000      0.000000     -0.000000
      2.89120      5.78240     20.33360        -0.000000      0.000000     -0.000000
      8.67360      0.00000      8.71440        -0.000000      0.000000     -0.000000
      8.67360      0.00000     20.33360        -0.000000      0.000000     -0.000000
      8.67360      5.78240      8.71440        -0.000000      0.000000     -0.000000
      8.67360      5.78240     20.33360        -0.000000      0.000000     -0.000000
      2.89120      2.89120      5.80960        -0.000000      0.000000     -0.000000
      2.89120      2.89120     17.42880        -0.000000      0.000000     -0.000000
      2.89120      8.67360      5.80960        -0.000000      0.000000     -0.000000
      2.89120      8.67360     17.42880        -0.000000      0.000000     -0.000000
      8.67360      2.89120      5.80960        -0.000000      0.000000     -0.000000
      8.67360      2.89120     17.42880        -0.000000      0.000000     -0.000000
      8.67360      8.67360      5.80960        -0.000000      0.000000     -0.000000
      8.67360      8.67360     17.42880        -0.000000      0.000000     -0.000000
      0.00000      2.89120      8.71440        -0.000000      0.000000     -0.000000
      0.00000      2.89120     20.33360        -0.000000      0.000000     -0.000000
      0.00000      8.67360      8.71440        -0.000000      0.000000      0.000000
      0.00000      8.67360     20.33360        -0.000000      0.000000      0.000000
      5.78240      2.89120      8.71440        -0.000000      0.000000     -0.000000
      5.78240      2.89120     20.33360        -0.000000      0.000000      0.000000
      5.78240      8.67360      8.71440        -0.000000      0.000000     -0.000000
      5.78240      8.67360     20.33360        -0.000000      0.000000      0.000000
      0.00000      0.00000      5.80960        -0.000000      0.000000     -0.000000
      0.00000      0.00000     17.42880        -0.000000      0.000000     -0.000000
      0.00000      5.78240      5.80960        -0.000000      0.000000     -0.000000
      0.00000      5.78240     17.42880        -0.000000      0.000000      0.000000
      5.78240      0.00000      5.80960        -0.000000      0.000000      0.000000
      5.78240      0.00000     17.42880        -0.000000      0.000000     -0.000000
      5.78240      5.78240      5.80960        -0.000000      0.000000     -0.000000
      5.78240      5.78240     17.42880        -0.000000      0.000000     -0.000000
      2.89120      0.00000      2.90480        -0.000000      0.000000      0.000000
      2.89120      0.00000     14.52400        -0.000000      0.000000     -0.000000
      2.89120      5.78240      2.90480        -0.000000      0.000000     -0.000000
      2.89120      5.78240     14.52400        -0.000000      0.000000      0.000000
      8.67360      0.00000      2.90480        -0.000000      0.000000      0.000000
      8.67360      0.00000     14.52400        -0.000000      0.000000     -0.000000
      8.67360      5.78240      2.90480        -0.000000      0.000000     -0.000000
      8.67360      5.78240     14.52400        -0.000000      0.000000      0.000000
      2.89120      2.89120      0.00000        -0.000000      0.000000      0.000000
      2.89120      2.89120     11.61920        -0.000000      0.000000     -0.000000
      2.89120      8.67360      0.00000        -0.000000      0.000000     -0.000000
      2.89120      8.67360     11.61920        -0.000000      0.000000     -0.000000
      8.67360      2.89120      0.00000        -0.000000      0.000000      0.000000
      8.67360      2.89120     11.61920        -0.000000      0.000000     -0.000000
      8.67360      8.67360      0.00000        -0.000000      0.000000      0.000000
      8.67360      8.67360     11.61920        -0.000000      0.000000     -0.000000
      4.33680      1.53234      4.35720        -0.000000      0.513270      0.000000
      4.33680      1.53234     15.97640        -0.000000      0.513270      0.000000
      4.33680      7.31474      4.35720        -0.000000      0.513270      0.000000
      4.33680      7.31474     15.97640        -0.000000      0.513270      0.000000
     10.11920      1.53234      4.35720        -0.000000      0.513270      0.000000
     10.11920      1.53234     15.97640        -0.000000      0.513270      0.000000
     10.11920      7.31474      4.35720        -0.000000      0.513270      0.000000
     10.11920      7.31474     15.97640        -0.000000      0.513270      0.000000
      1.44560      4.42354     10.16680        -0.000000      0.513270      0.000000
      1.44560      4.42354     21.78600        -0.000000      0.513270      0.000000
      1.44560     10.20594     10.16680        -0.000000      0.513270      0.000000
      1.44560     10.20594     21.78600        -0.000000      0.513270      0.000000
      7.22800      4.42354     10.16680        -0.000000      0.513270      0.000000
      7.22800      4.42354     21.78600        -0.000000      0.513270      0.000000
      7.22800     10.20594     10.16680        -0.000000      0.513270      0.000000
      7.22800     10.20594     21.78600        -0.000000      0.513270      0.000000
      1.44560      4.25006      4.35720        -0.000000     -0.513270     -0.000000
      1.44560      4.25006     15.97640        -0.000000     -0.513270     -0.000000
      1.44560     10.03246      4.35720        -0.000000     -0.513270     -0.000000
      1.44560     10.03246     15.97640        -0.000000     -0.513270     -0.000000
      7.22800      4.25006      4.35720        -0.000000     -0.513270     -0.000000
      7.22800      4.25006     15.97640        -0.000000     -0.513270     -0.000000
      7.22800     10.03246      4.35720        -0.000000     -0.513270     -0.000000
      7.22800     10.03246     15.97640        -0.000000     -0.513270     -0.000000
      4.33680      1.35886     10.16680        -0.000000     -0.513270     -0.000000
      4.33680      1.35886     21.78600        -0.000000     -0.513270     -0.000000
      4.33680      7.14126     10.16680        -0.000000     -0.513270     -0.000000
      4.33680      7.14126     21.78600        -0.000000     -0.513270     -0.000000
     10.11920      1.35886     10.16680        -0.000000     -0.513270     -0.000000
     10.11920      1.35886     21.78600        -0.000000     -0.513270     -0.000000
     10.11920      7.14126     10.16680        -0.000000     -0.513270     -0.000000
     10.11920      7.14126     21.78600        -0.000000     -0.513270     -0.000000
      1.35886      1.44560      1.45240        -0.513270      0.000000      0.000000
      1.35886      1.44560     13.07160        -0.513270      0.000000      0.000000
      1.35886      7.22800      1.45240        -0.513270      0.000000      0.000000
      1.35886      7.22800     13.07160        -0.513270      0.000000      0.000000
      7.14126      1.44560      1.45240        -0.513270      0.000000      0.000000
      7.14126      1.44560     13.07160        -0.513270      0.000000      0.000000
      7.14126      7.22800      1.45240        -0.513270      0.000000      0.000000
      7.14126      7.22800     13.07160        -0.513270      0.000000      0.000000
      4.42354      4.33680      1.45240         0.513270      0.000000     -0.000000
      4.42354      4.33680     13.07160         0.513270      0.000000     -0.000000
      4.42354     10.11920      1.45240         0.513270      0.000000     -0.000000
      4.42354     10.11920     13.07160         0.513270      0.000000     -0.000000
     10.20594      4.33680      1.45240         0.513270      0.000000     -0.000000
     10.20594      4.33680     13.07160         0.513270      0.000000     -0.000000
     10.20594     10.11920      1.45240         0.513270      0.000000     -0.000000
     10.20594     10.11920     13.07160         0.513270      0.000000     -0.000000
      4.25006      4.33680      7.26200        -0.513270      0.000000      0.000000
      4.25006      4.33680     18.88120        -0.513270      0.000000      0.000000
      4.25006     10.11920      7.26200        -0.513270      0.000000      0.000000
      4.25006     10.11920     18.88120        -0.513270      0.000000      0.000000
     10.03246      4.33680      7.26200        -0.513270      0.000000      0.000000
     10.03246      4.33680     18.88120        -0.513270      0.000000      0.000000
     10.03246     10.11920      7.26200        -0.513270      0.000000      0.000000
     10.03246     10.11920     18.88120        -0.513270      0.000000      0.000000
      1.53234      1.44560      7.26200         0.513270      0.000000     -0.000000
      1.53234      1.44560     18.88120         0.513270      0.000000      0.000000
      1.53234      7.22800      7.26200         0.513270      0.000000     -0.000000
      1.53234      7.22800     18.88120         0.513270      0.000000      0.000000
      7.31474      1.44560      7.26200         0.513270      0.000000     -0.000000
      7.31474      1.44560     18.88120         0.513270      0.000000      0.000000
      7.31474      7.22800      7.26200         0.513270      0.000000     -0.000000
      7.31474      7.22800     18.88120         0.513270      0.000000     -0.000000
 -----------------------------------------------------------------------------------
    total drift:                                0.000076      0.000100      0.000013


--------------------------------------------------------------------------------------------------------



  FREE ENERGIE OF THE ION-ELECTRON SYSTEM (eV)
  ---------------------------------------------------
  free  energy   TOTEN  =      -666.09210661 eV

  energy  without entropy=     -666.09210661  energy(sigma->0) =     -666.09210661
 


--------------------------------------------------------------------------------------------------------


    POTLOK:  cpu time     12.5238: real time     12.5764


--------------------------------------------------------------------------------------------------------


 writing wavefunctions
     LOOP+:  cpu time  40643.9124: real time  40841.7771
    4ORBIT:  cpu time      0.0001: real time      0.0006

 total amount of memory used by VASP MPI-rank0 17972214. kBytes
=======================================================================

   base                                    :      30000. kBytes
   nonl-proj                               :     750724. kBytes
   fftplans                                :     483948. kBytes
   grid                                    :     980434. kBytes
   one-center                              :       1990. kBytes
   HF                                      :        194. kBytes
   nonlr-proj                              :      67968. kBytes
   wavefun                                 :   14035370. kBytes
   fock_wrk                                :    1621586. kBytes
 
  
  
 General timing and accounting informations for this job:
 ========================================================
  
                  Total CPU time used (sec):    40703.121
                            User time (sec):    40679.702
                          System time (sec):       23.417
                         Elapsed time (sec):    40901.405
  
                   Maximum memory used (kb):    32382584.
                   Average memory used (kb):          N/A
  
                          Minor page faults:       422418
                          Major page faults:         8530
                 Voluntary context switches:       743782
