<?xml version="1.0" encoding="ISO-8859-1"?>
<modeling>
 <generator>
  <i name="program" type="string">vasp </i>
  <i name="version" type="string">6.5.1  </i>
  <i name="subversion" type="string">10Mar25 (build Sep 17 2025 13:25:28) gamma-only                       parallel </i>
  <i name="platform" type="string">LinuxNV </i>
  <i name="date" type="string">2025 09 22 </i>
  <i name="time" type="string">17:03:31 </i>
 </generator>
 <incar>
  <i type="string" name="SYSTEM">Butanethiol on Ag 100 surface, 3-layer slab</i>
  <i type="int" name="ISTART">     0</i>
  <i type="string" name="PREC">MEDIUM</i>
  <i type="string" name="ALGO">Fast</i>
  <i type="int" name="ICHARG">     2</i>
  <i type="int" name="NELMIN">     4</i>
  <i name="EDIFF">      0.00000100</i>
  <i type="int" name="NBLOCK">     1</i>
  <i type="int" name="KBLOCK">     1</i>
  <i name="ENCUT">    400.00000000</i>
  <i name="POTIM">      0.40000000</i>
  <i type="string" name="LREAL">A</i>
  <i type="logical" name="LPLANE"> T  </i>
  <i type="int" name="ISMEAR">     1</i>
  <i name="SIGMA">      0.10000000</i>
  <i type="int" name="NWRITE">     3</i>
  <i type="int" name="LMAXPAW">     1</i>
  <i type="logical" name="LWAVE"> T  </i>
  <i type="logical" name="LCHARG"> T  </i>
  <i type="string" name="GGA">PE</i>
 </incar>
 <primitive_cell>
  <structure name="primitive_cell" >
   <crystal>
    <varray name="basis" >
     <v>      33.93000000       0.00000000       0.00000000 </v>
     <v>       0.00000000      33.93000000       0.00000000 </v>
     <v>       0.00000000       0.00000000      50.00000000 </v>
    </varray>
    <i name="volume">  57562.24500000 </i>
    <varray name="rec_basis" >
     <v>       0.02947244       0.00000000       0.00000000 </v>
     <v>       0.00000000       0.02947244       0.00000000 </v>
     <v>       0.00000000       0.00000000       0.02000000 </v>
    </varray>
   </crystal>
   <varray name="positions" >
    <v>       0.02777778       0.02777778       0.36805000 </v>
    <v>       0.08333333       0.08333333       0.36805000 </v>
    <v>       0.02777778       0.08333333       0.40575000 </v>
    <v>       0.08333333       0.02777778       0.40575000 </v>
    <v>       0.02777778       0.02777778       0.44345000 </v>
    <v>       0.08333333       0.08333333       0.44345000 </v>
    <v>       0.02777778       0.08333333       0.48115000 </v>
    <v>       0.08333333       0.02777778       0.48115000 </v>
    <v>       0.02777778       0.02777778       0.51885000 </v>
    <v>       0.08333333       0.08333333       0.51885000 </v>
    <v>       0.02777778       0.08333333       0.55655000 </v>
    <v>       0.08333333       0.02777778       0.55655000 </v>
    <v>       0.02777778       0.02777778       0.59425000 </v>
    <v>       0.08333333       0.08333333       0.59425000 </v>
    <v>       0.02777778       0.13888889       0.36805000 </v>
    <v>       0.08333333       0.19444444       0.36805000 </v>
    <v>       0.02777778       0.19444444       0.40575000 </v>
    <v>       0.08333333       0.13888889       0.40575000 </v>
    <v>       0.02777778       0.13888889       0.44345000 </v>
    <v>       0.08333333       0.19444444       0.44345000 </v>
    <v>       0.02777778       0.19444444       0.48115000 </v>
    <v>       0.08333333       0.13888889       0.48115000 </v>
    <v>       0.02777778       0.13888889       0.51885000 </v>
    <v>       0.08333333       0.19444444       0.51885000 </v>
    <v>       0.02777778       0.19444444       0.55655000 </v>
    <v>       0.08333333       0.13888889       0.55655000 </v>
    <v>       0.02777778       0.13888889       0.59425000 </v>
    <v>       0.08333333       0.19444444       0.59425000 </v>
    <v>       0.02777778       0.25000000       0.36805000 </v>
    <v>       0.08333333       0.30555556       0.36805000 </v>
    <v>       0.02777778       0.30555556       0.40575000 </v>
    <v>       0.08333333       0.25000000       0.40575000 </v>
    <v>       0.02777778       0.25000000       0.44345000 </v>
    <v>       0.08333333       0.30555556       0.44345000 </v>
    <v>       0.02777778       0.30555556       0.48115000 </v>
    <v>       0.08333333       0.25000000       0.48115000 </v>
    <v>       0.02777778       0.25000000       0.51885000 </v>
    <v>       0.08333333       0.30555556       0.51885000 </v>
    <v>       0.02777778       0.30555556       0.55655000 </v>
    <v>       0.08333333       0.25000000       0.55655000 </v>
    <v>       0.02777778       0.25000000       0.59425000 </v>
    <v>       0.08333333       0.30555556       0.59425000 </v>
    <v>       0.02777778       0.36111111       0.36805000 </v>
    <v>       0.08333333       0.41666667       0.36805000 </v>
    <v>       0.02777778       0.41666667       0.40575000 </v>
    <v>       0.08333333       0.36111111       0.40575000 </v>
    <v>       0.02777778       0.36111111       0.44345000 </v>
    <v>       0.08333333       0.41666667       0.44345000 </v>
    <v>       0.02777778       0.41666667       0.48115000 </v>
    <v>       0.08333333       0.36111111       0.48115000 </v>
    <v>       0.02777778       0.36111111       0.51885000 </v>
    <v>       0.08333333       0.41666667       0.51885000 </v>
    <v>       0.02777778       0.41666667       0.55655000 </v>
    <v>       0.08333333       0.36111111       0.55655000 </v>
    <v>       0.02777778       0.36111111       0.59425000 </v>
    <v>       0.08333333       0.41666667       0.59425000 </v>
    <v>       0.02777778       0.47222222       0.36805000 </v>
    <v>       0.08333333       0.52777778       0.36805000 </v>
    <v>       0.02777778       0.52777778       0.40575000 </v>
    <v>       0.08333333       0.47222222       0.40575000 </v>
    <v>       0.02777778       0.47222222       0.44345000 </v>
    <v>       0.08333333       0.52777778       0.44345000 </v>
    <v>       0.02777778       0.52777778       0.48115000 </v>
    <v>       0.08333333       0.47222222       0.48115000 </v>
    <v>       0.02777778       0.47222222       0.51885000 </v>
    <v>       0.08333333       0.52777778       0.51885000 </v>
    <v>       0.02777778       0.52777778       0.55655000 </v>
    <v>       0.08333333       0.47222222       0.55655000 </v>
    <v>       0.02777778       0.47222222       0.59425000 </v>
    <v>       0.08333333       0.52777778       0.59425000 </v>
    <v>       0.02777778       0.58333333       0.36805000 </v>
    <v>       0.08333333       0.63888889       0.36805000 </v>
    <v>       0.02777778       0.63888889       0.40575000 </v>
    <v>       0.08333333       0.58333333       0.40575000 </v>
    <v>       0.02777778       0.58333333       0.44345000 </v>
    <v>       0.08333333       0.63888889       0.44345000 </v>
    <v>       0.02777778       0.63888889       0.48115000 </v>
    <v>       0.08333333       0.58333333       0.48115000 </v>
    <v>       0.02777778       0.58333333       0.51885000 </v>
    <v>       0.08333333       0.63888889       0.51885000 </v>
    <v>       0.02777778       0.63888889       0.55655000 </v>
    <v>       0.08333333       0.58333333       0.55655000 </v>
    <v>       0.02777778       0.58333333       0.59425000 </v>
    <v>       0.08333333       0.63888889       0.59425000 </v>
    <v>       0.02777778       0.69444444       0.36805000 </v>
    <v>       0.08333333       0.75000000       0.36805000 </v>
    <v>       0.02777778       0.75000000       0.40575000 </v>
    <v>       0.08333333       0.69444444       0.40575000 </v>
    <v>       0.02777778       0.69444444       0.44345000 </v>
    <v>       0.08333333       0.75000000       0.44345000 </v>
    <v>       0.02777778       0.75000000       0.48115000 </v>
    <v>       0.08333333       0.69444444       0.48115000 </v>
    <v>       0.02777778       0.69444444       0.51885000 </v>
    <v>       0.08333333       0.75000000       0.51885000 </v>
    <v>       0.02777778       0.75000000       0.55655000 </v>
    <v>       0.08333333       0.69444444       0.55655000 </v>
    <v>       0.02777778       0.69444444       0.59425000 </v>
    <v>       0.08333333       0.75000000       0.59425000 </v>
    <v>       0.02777778       0.80555556       0.36805000 </v>
    <v>       0.08333333       0.86111111       0.36805000 </v>
    <v>       0.02777778       0.86111111       0.40575000 </v>
    <v>       0.08333333       0.80555556       0.40575000 </v>
    <v>       0.02777778       0.80555556       0.44345000 </v>
    <v>       0.08333333       0.86111111       0.44345000 </v>
    <v>       0.02777778       0.86111111       0.48115000 </v>
    <v>       0.08333333       0.80555556       0.48115000 </v>
    <v>       0.02777778       0.80555556       0.51885000 </v>
    <v>       0.08333333       0.86111111       0.51885000 </v>
    <v>       0.02777778       0.86111111       0.55655000 </v>
    <v>       0.08333333       0.80555556       0.55655000 </v>
    <v>       0.02777778       0.80555556       0.59425000 </v>
    <v>       0.08333333       0.86111111       0.59425000 </v>
    <v>       0.02777778       0.91666667       0.36805000 </v>
    <v>       0.08333333       0.97222222       0.36805000 </v>
    <v>       0.02777778       0.97222222       0.40575000 </v>
    <v>       0.08333333       0.91666667       0.40575000 </v>
    <v>       0.02777778       0.91666667       0.44345000 </v>
    <v>       0.08333333       0.97222222       0.44345000 </v>
    <v>       0.02777778       0.97222222       0.48115000 </v>
    <v>       0.08333333       0.91666667       0.48115000 </v>
    <v>       0.02777778       0.91666667       0.51885000 </v>
    <v>       0.08333333       0.97222222       0.51885000 </v>
    <v>       0.02777778       0.97222222       0.55655000 </v>
    <v>       0.08333333       0.91666667       0.55655000 </v>
    <v>       0.02777778       0.91666667       0.59425000 </v>
    <v>       0.08333333       0.97222222       0.59425000 </v>
    <v>       0.13888889       0.02777778       0.36805000 </v>
    <v>       0.19444444       0.08333333       0.36805000 </v>
    <v>       0.13888889       0.08333333       0.40575000 </v>
    <v>       0.19444444       0.02777778       0.40575000 </v>
    <v>       0.13888889       0.02777778       0.44345000 </v>
    <v>       0.19444444       0.08333333       0.44345000 </v>
    <v>       0.13888889       0.08333333       0.48115000 </v>
    <v>       0.19444444       0.02777778       0.48115000 </v>
    <v>       0.13888889       0.02777778       0.51885000 </v>
    <v>       0.19444444       0.08333333       0.51885000 </v>
    <v>       0.13888889       0.08333333       0.55655000 </v>
    <v>       0.19444444       0.02777778       0.55655000 </v>
    <v>       0.13888889       0.02777778       0.59425000 </v>
    <v>       0.19444444       0.08333333       0.59425000 </v>
    <v>       0.13888889       0.13888889       0.36805000 </v>
    <v>       0.19444444       0.19444444       0.36805000 </v>
    <v>       0.13888889       0.19444444       0.40575000 </v>
    <v>       0.19444444       0.13888889       0.40575000 </v>
    <v>       0.13888889       0.13888889       0.44345000 </v>
    <v>       0.19444444       0.19444444       0.44345000 </v>
    <v>       0.13888889       0.19444444       0.48115000 </v>
    <v>       0.19444444       0.13888889       0.48115000 </v>
    <v>       0.13888889       0.13888889       0.51885000 </v>
    <v>       0.19444444       0.19444444       0.51885000 </v>
    <v>       0.13888889       0.19444444       0.55655000 </v>
    <v>       0.19444444       0.13888889       0.55655000 </v>
    <v>       0.13888889       0.13888889       0.59425000 </v>
    <v>       0.19444444       0.19444444       0.59425000 </v>
    <v>       0.13888889       0.25000000       0.36805000 </v>
    <v>       0.19444444       0.30555556       0.36805000 </v>
    <v>       0.13888889       0.30555556       0.40575000 </v>
    <v>       0.19444444       0.25000000       0.40575000 </v>
    <v>       0.13888889       0.25000000       0.44345000 </v>
    <v>       0.19444444       0.30555556       0.44345000 </v>
    <v>       0.13888889       0.30555556       0.48115000 </v>
    <v>       0.19444444       0.25000000       0.48115000 </v>
    <v>       0.13888889       0.25000000       0.51885000 </v>
    <v>       0.19444444       0.30555556       0.51885000 </v>
    <v>       0.13888889       0.30555556       0.55655000 </v>
    <v>       0.19444444       0.25000000       0.55655000 </v>
    <v>       0.13888889       0.25000000       0.59425000 </v>
    <v>       0.19444444       0.30555556       0.59425000 </v>
    <v>       0.13888889       0.36111111       0.36805000 </v>
    <v>       0.19444444       0.41666667       0.36805000 </v>
    <v>       0.13888889       0.41666667       0.40575000 </v>
    <v>       0.19444444       0.36111111       0.40575000 </v>
    <v>       0.13888889       0.36111111       0.44345000 </v>
    <v>       0.19444444       0.41666667       0.44345000 </v>
    <v>       0.13888889       0.41666667       0.48115000 </v>
    <v>       0.19444444       0.36111111       0.48115000 </v>
    <v>       0.13888889       0.36111111       0.51885000 </v>
    <v>       0.19444444       0.41666667       0.51885000 </v>
    <v>       0.13888889       0.41666667       0.55655000 </v>
    <v>       0.19444444       0.36111111       0.55655000 </v>
    <v>       0.13888889       0.36111111       0.59425000 </v>
    <v>       0.19444444       0.41666667       0.59425000 </v>
    <v>       0.13888889       0.47222222       0.36805000 </v>
    <v>       0.19444444       0.52777778       0.36805000 </v>
    <v>       0.13888889       0.52777778       0.40575000 </v>
    <v>       0.19444444       0.47222222       0.40575000 </v>
    <v>       0.13888889       0.47222222       0.44345000 </v>
    <v>       0.19444444       0.52777778       0.44345000 </v>
    <v>       0.13888889       0.52777778       0.48115000 </v>
    <v>       0.19444444       0.47222222       0.48115000 </v>
    <v>       0.13888889       0.47222222       0.51885000 </v>
    <v>       0.19444444       0.52777778       0.51885000 </v>
    <v>       0.13888889       0.52777778       0.55655000 </v>
    <v>       0.19444444       0.47222222       0.55655000 </v>
    <v>       0.13888889       0.47222222       0.59425000 </v>
    <v>       0.19444444       0.52777778       0.59425000 </v>
    <v>       0.13888889       0.58333333       0.36805000 </v>
    <v>       0.19444444       0.63888889       0.36805000 </v>
    <v>       0.13888889       0.63888889       0.40575000 </v>
    <v>       0.19444444       0.58333333       0.40575000 </v>
    <v>       0.13888889       0.58333333       0.44345000 </v>
    <v>       0.19444444       0.63888889       0.44345000 </v>
    <v>       0.13888889       0.63888889       0.48115000 </v>
    <v>       0.19444444       0.58333333       0.48115000 </v>
    <v>       0.13888889       0.58333333       0.51885000 </v>
    <v>       0.19444444       0.63888889       0.51885000 </v>
    <v>       0.13888889       0.63888889       0.55655000 </v>
    <v>       0.19444444       0.58333333       0.55655000 </v>
    <v>       0.13888889       0.58333333       0.59425000 </v>
    <v>       0.19444444       0.63888889       0.59425000 </v>
    <v>       0.13888889       0.69444444       0.36805000 </v>
    <v>       0.19444444       0.75000000       0.36805000 </v>
    <v>       0.13888889       0.75000000       0.40575000 </v>
    <v>       0.19444444       0.69444444       0.40575000 </v>
    <v>       0.13888889       0.69444444       0.44345000 </v>
    <v>       0.19444444       0.75000000       0.44345000 </v>
    <v>       0.13888889       0.75000000       0.48115000 </v>
    <v>       0.19444444       0.69444444       0.48115000 </v>
    <v>       0.13888889       0.69444444       0.51885000 </v>
    <v>       0.19444444       0.75000000       0.51885000 </v>
    <v>       0.13888889       0.75000000       0.55655000 </v>
    <v>       0.19444444       0.69444444       0.55655000 </v>
    <v>       0.13888889       0.69444444       0.59425000 </v>
    <v>       0.19444444       0.75000000       0.59425000 </v>
    <v>       0.13888889       0.80555556       0.36805000 </v>
    <v>       0.19444444       0.86111111       0.36805000 </v>
    <v>       0.13888889       0.86111111       0.40575000 </v>
    <v>       0.19444444       0.80555556       0.40575000 </v>
    <v>       0.13888889       0.80555556       0.44345000 </v>
    <v>       0.19444444       0.86111111       0.44345000 </v>
    <v>       0.13888889       0.86111111       0.48115000 </v>
    <v>       0.19444444       0.80555556       0.48115000 </v>
    <v>       0.13888889       0.80555556       0.51885000 </v>
    <v>       0.19444444       0.86111111       0.51885000 </v>
    <v>       0.13888889       0.86111111       0.55655000 </v>
    <v>       0.19444444       0.80555556       0.55655000 </v>
    <v>       0.13888889       0.80555556       0.59425000 </v>
    <v>       0.19444444       0.86111111       0.59425000 </v>
    <v>       0.13888889       0.91666667       0.36805000 </v>
    <v>       0.19444444       0.97222222       0.36805000 </v>
    <v>       0.13888889       0.97222222       0.40575000 </v>
    <v>       0.19444444       0.91666667       0.40575000 </v>
    <v>       0.13888889       0.91666667       0.44345000 </v>
    <v>       0.19444444       0.97222222       0.44345000 </v>
    <v>       0.13888889       0.97222222       0.48115000 </v>
    <v>       0.19444444       0.91666667       0.48115000 </v>
    <v>       0.13888889       0.91666667       0.51885000 </v>
    <v>       0.19444444       0.97222222       0.51885000 </v>
    <v>       0.13888889       0.97222222       0.55655000 </v>
    <v>       0.19444444       0.91666667       0.55655000 </v>
    <v>       0.13888889       0.91666667       0.59425000 </v>
    <v>       0.19444444       0.97222222       0.59425000 </v>
    <v>       0.25000000       0.02777778       0.36805000 </v>
    <v>       0.30555556       0.08333333       0.36805000 </v>
    <v>       0.25000000       0.08333333       0.40575000 </v>
    <v>       0.30555556       0.02777778       0.40575000 </v>
    <v>       0.25000000       0.02777778       0.44345000 </v>
    <v>       0.30555556       0.08333333       0.44345000 </v>
    <v>       0.25000000       0.08333333       0.48115000 </v>
    <v>       0.30555556       0.02777778       0.48115000 </v>
    <v>       0.25000000       0.02777778       0.51885000 </v>
    <v>       0.30555556       0.08333333       0.51885000 </v>
    <v>       0.25000000       0.08333333       0.55655000 </v>
    <v>       0.30555556       0.02777778       0.55655000 </v>
    <v>       0.25000000       0.02777778       0.59425000 </v>
    <v>       0.30555556       0.08333333       0.59425000 </v>
    <v>       0.25000000       0.13888889       0.36805000 </v>
    <v>       0.30555556       0.19444444       0.36805000 </v>
    <v>       0.25000000       0.19444444       0.40575000 </v>
    <v>       0.30555556       0.13888889       0.40575000 </v>
    <v>       0.25000000       0.13888889       0.44345000 </v>
    <v>       0.30555556       0.19444444       0.44345000 </v>
    <v>       0.25000000       0.19444444       0.48115000 </v>
    <v>       0.30555556       0.13888889       0.48115000 </v>
    <v>       0.25000000       0.13888889       0.51885000 </v>
    <v>       0.30555556       0.19444444       0.51885000 </v>
    <v>       0.25000000       0.19444444       0.55655000 </v>
    <v>       0.30555556       0.13888889       0.55655000 </v>
    <v>       0.25000000       0.13888889       0.59425000 </v>
    <v>       0.30555556       0.19444444       0.59425000 </v>
    <v>       0.25000000       0.25000000       0.36805000 </v>
    <v>       0.30555556       0.30555556       0.36805000 </v>
    <v>       0.25000000       0.30555556       0.40575000 </v>
    <v>       0.30555556       0.25000000       0.40575000 </v>
    <v>       0.25000000       0.25000000       0.44345000 </v>
    <v>       0.30555556       0.30555556       0.44345000 </v>
    <v>       0.25000000       0.30555556       0.48115000 </v>
    <v>       0.30555556       0.25000000       0.48115000 </v>
    <v>       0.25000000       0.25000000       0.51885000 </v>
    <v>       0.30555556       0.30555556       0.51885000 </v>
    <v>       0.25000000       0.30555556       0.55655000 </v>
    <v>       0.30555556       0.25000000       0.55655000 </v>
    <v>       0.25000000       0.25000000       0.59425000 </v>
    <v>       0.30555556       0.30555556       0.59425000 </v>
    <v>       0.25000000       0.36111111       0.36805000 </v>
    <v>       0.30555556       0.41666667       0.36805000 </v>
    <v>       0.25000000       0.41666667       0.40575000 </v>
    <v>       0.30555556       0.36111111       0.40575000 </v>
    <v>       0.25000000       0.36111111       0.44345000 </v>
    <v>       0.30555556       0.41666667       0.44345000 </v>
    <v>       0.25000000       0.41666667       0.48115000 </v>
    <v>       0.30555556       0.36111111       0.48115000 </v>
    <v>       0.25000000       0.36111111       0.51885000 </v>
    <v>       0.30555556       0.41666667       0.51885000 </v>
    <v>       0.25000000       0.41666667       0.55655000 </v>
    <v>       0.30555556       0.36111111       0.55655000 </v>
    <v>       0.25000000       0.36111111       0.59425000 </v>
    <v>       0.30555556       0.41666667       0.59425000 </v>
    <v>       0.25000000       0.47222222       0.36805000 </v>
    <v>       0.30555556       0.52777778       0.36805000 </v>
    <v>       0.25000000       0.52777778       0.40575000 </v>
    <v>       0.30555556       0.47222222       0.40575000 </v>
    <v>       0.25000000       0.47222222       0.44345000 </v>
    <v>       0.30555556       0.52777778       0.44345000 </v>
    <v>       0.25000000       0.52777778       0.48115000 </v>
    <v>       0.30555556       0.47222222       0.48115000 </v>
    <v>       0.25000000       0.47222222       0.51885000 </v>
    <v>       0.30555556       0.52777778       0.51885000 </v>
    <v>       0.25000000       0.52777778       0.55655000 </v>
    <v>       0.30555556       0.47222222       0.55655000 </v>
    <v>       0.25000000       0.47222222       0.59425000 </v>
    <v>       0.30555556       0.52777778       0.59425000 </v>
    <v>       0.25000000       0.58333333       0.36805000 </v>
    <v>       0.30555556       0.63888889       0.36805000 </v>
    <v>       0.25000000       0.63888889       0.40575000 </v>
    <v>       0.30555556       0.58333333       0.40575000 </v>
    <v>       0.25000000       0.58333333       0.44345000 </v>
    <v>       0.30555556       0.63888889       0.44345000 </v>
    <v>       0.25000000       0.63888889       0.48115000 </v>
    <v>       0.30555556       0.58333333       0.48115000 </v>
    <v>       0.25000000       0.58333333       0.51885000 </v>
    <v>       0.30555556       0.63888889       0.51885000 </v>
    <v>       0.25000000       0.63888889       0.55655000 </v>
    <v>       0.30555556       0.58333333       0.55655000 </v>
    <v>       0.25000000       0.58333333       0.59425000 </v>
    <v>       0.30555556       0.63888889       0.59425000 </v>
    <v>       0.25000000       0.69444444       0.36805000 </v>
    <v>       0.30555556       0.75000000       0.36805000 </v>
    <v>       0.25000000       0.75000000       0.40575000 </v>
    <v>       0.30555556       0.69444444       0.40575000 </v>
    <v>       0.25000000       0.69444444       0.44345000 </v>
    <v>       0.30555556       0.75000000       0.44345000 </v>
    <v>       0.25000000       0.75000000       0.48115000 </v>
    <v>       0.30555556       0.69444444       0.48115000 </v>
    <v>       0.25000000       0.69444444       0.51885000 </v>
    <v>       0.30555556       0.75000000       0.51885000 </v>
    <v>       0.25000000       0.75000000       0.55655000 </v>
    <v>       0.30555556       0.69444444       0.55655000 </v>
    <v>       0.25000000       0.69444444       0.59425000 </v>
    <v>       0.30555556       0.75000000       0.59425000 </v>
    <v>       0.25000000       0.80555556       0.36805000 </v>
    <v>       0.30555556       0.86111111       0.36805000 </v>
    <v>       0.25000000       0.86111111       0.40575000 </v>
    <v>       0.30555556       0.80555556       0.40575000 </v>
    <v>       0.25000000       0.80555556       0.44345000 </v>
    <v>       0.30555556       0.86111111       0.44345000 </v>
    <v>       0.25000000       0.86111111       0.48115000 </v>
    <v>       0.30555556       0.80555556       0.48115000 </v>
    <v>       0.25000000       0.80555556       0.51885000 </v>
    <v>       0.30555556       0.86111111       0.51885000 </v>
    <v>       0.25000000       0.86111111       0.55655000 </v>
    <v>       0.30555556       0.80555556       0.55655000 </v>
    <v>       0.25000000       0.80555556       0.59425000 </v>
    <v>       0.30555556       0.86111111       0.59425000 </v>
    <v>       0.25000000       0.91666667       0.36805000 </v>
    <v>       0.30555556       0.97222222       0.36805000 </v>
    <v>       0.25000000       0.97222222       0.40575000 </v>
    <v>       0.30555556       0.91666667       0.40575000 </v>
    <v>       0.25000000       0.91666667       0.44345000 </v>
    <v>       0.30555556       0.97222222       0.44345000 </v>
    <v>       0.25000000       0.97222222       0.48115000 </v>
    <v>       0.30555556       0.91666667       0.48115000 </v>
    <v>       0.25000000       0.91666667       0.51885000 </v>
    <v>       0.30555556       0.97222222       0.51885000 </v>
    <v>       0.25000000       0.97222222       0.55655000 </v>
    <v>       0.30555556       0.91666667       0.55655000 </v>
    <v>       0.25000000       0.91666667       0.59425000 </v>
    <v>       0.30555556       0.97222222       0.59425000 </v>
    <v>       0.36111111       0.02777778       0.36805000 </v>
    <v>       0.41666667       0.08333333       0.36805000 </v>
    <v>       0.36111111       0.08333333       0.40575000 </v>
    <v>       0.41666667       0.02777778       0.40575000 </v>
    <v>       0.36111111       0.02777778       0.44345000 </v>
    <v>       0.41666667       0.08333333       0.44345000 </v>
    <v>       0.36111111       0.08333333       0.48115000 </v>
    <v>       0.41666667       0.02777778       0.48115000 </v>
    <v>       0.36111111       0.02777778       0.51885000 </v>
    <v>       0.41666667       0.08333333       0.51885000 </v>
    <v>       0.36111111       0.08333333       0.55655000 </v>
    <v>       0.41666667       0.02777778       0.55655000 </v>
    <v>       0.36111111       0.02777778       0.59425000 </v>
    <v>       0.41666667       0.08333333       0.59425000 </v>
    <v>       0.36111111       0.13888889       0.36805000 </v>
    <v>       0.41666667       0.19444444       0.36805000 </v>
    <v>       0.36111111       0.19444444       0.40575000 </v>
    <v>       0.41666667       0.13888889       0.40575000 </v>
    <v>       0.36111111       0.13888889       0.44345000 </v>
    <v>       0.41666667       0.19444444       0.44345000 </v>
    <v>       0.36111111       0.19444444       0.48115000 </v>
    <v>       0.41666667       0.13888889       0.48115000 </v>
    <v>       0.36111111       0.13888889       0.51885000 </v>
    <v>       0.41666667       0.19444444       0.51885000 </v>
    <v>       0.36111111       0.19444444       0.55655000 </v>
    <v>       0.41666667       0.13888889       0.55655000 </v>
    <v>       0.36111111       0.13888889       0.59425000 </v>
    <v>       0.41666667       0.19444444       0.59425000 </v>
    <v>       0.36111111       0.25000000       0.36805000 </v>
    <v>       0.41666667       0.30555556       0.36805000 </v>
    <v>       0.36111111       0.30555556       0.40575000 </v>
    <v>       0.41666667       0.25000000       0.40575000 </v>
    <v>       0.36111111       0.25000000       0.44345000 </v>
    <v>       0.41666667       0.30555556       0.44345000 </v>
    <v>       0.36111111       0.30555556       0.48115000 </v>
    <v>       0.41666667       0.25000000       0.48115000 </v>
    <v>       0.36111111       0.25000000       0.51885000 </v>
    <v>       0.41666667       0.30555556       0.51885000 </v>
    <v>       0.36111111       0.30555556       0.55655000 </v>
    <v>       0.41666667       0.25000000       0.55655000 </v>
    <v>       0.36111111       0.25000000       0.59425000 </v>
    <v>       0.41666667       0.30555556       0.59425000 </v>
    <v>       0.36111111       0.36111111       0.36805000 </v>
    <v>       0.41666667       0.41666667       0.36805000 </v>
    <v>       0.36111111       0.41666667       0.40575000 </v>
    <v>       0.41666667       0.36111111       0.40575000 </v>
    <v>       0.36111111       0.36111111       0.44345000 </v>
    <v>       0.41666667       0.41666667       0.44345000 </v>
    <v>       0.36111111       0.41666667       0.48115000 </v>
    <v>       0.41666667       0.36111111       0.48115000 </v>
    <v>       0.36111111       0.36111111       0.51885000 </v>
    <v>       0.41666667       0.41666667       0.51885000 </v>
    <v>       0.36111111       0.41666667       0.55655000 </v>
    <v>       0.41666667       0.36111111       0.55655000 </v>
    <v>       0.36111111       0.36111111       0.59425000 </v>
    <v>       0.41666667       0.41666667       0.59425000 </v>
    <v>       0.36111111       0.47222222       0.36805000 </v>
    <v>       0.41666667       0.52777778       0.36805000 </v>
    <v>       0.36111111       0.52777778       0.40575000 </v>
    <v>       0.41666667       0.47222222       0.40575000 </v>
    <v>       0.36111111       0.47222222       0.44345000 </v>
    <v>       0.41666667       0.52777778       0.44345000 </v>
    <v>       0.36111111       0.52777778       0.48115000 </v>
    <v>       0.41666667       0.47222222       0.48115000 </v>
    <v>       0.36111111       0.47222222       0.51885000 </v>
    <v>       0.41666667       0.52777778       0.51885000 </v>
    <v>       0.36111111       0.52777778       0.55655000 </v>
    <v>       0.41666667       0.47222222       0.55655000 </v>
    <v>       0.36111111       0.47222222       0.59425000 </v>
    <v>       0.41666667       0.52777778       0.59425000 </v>
    <v>       0.36111111       0.58333333       0.36805000 </v>
    <v>       0.41666667       0.63888889       0.36805000 </v>
    <v>       0.36111111       0.63888889       0.40575000 </v>
    <v>       0.41666667       0.58333333       0.40575000 </v>
    <v>       0.36111111       0.58333333       0.44345000 </v>
    <v>       0.41666667       0.63888889       0.44345000 </v>
    <v>       0.36111111       0.63888889       0.48115000 </v>
    <v>       0.41666667       0.58333333       0.48115000 </v>
    <v>       0.36111111       0.58333333       0.51885000 </v>
    <v>       0.41666667       0.63888889       0.51885000 </v>
    <v>       0.36111111       0.63888889       0.55655000 </v>
    <v>       0.41666667       0.58333333       0.55655000 </v>
    <v>       0.36111111       0.58333333       0.59425000 </v>
    <v>       0.41666667       0.63888889       0.59425000 </v>
    <v>       0.36111111       0.69444444       0.36805000 </v>
    <v>       0.41666667       0.75000000       0.36805000 </v>
    <v>       0.36111111       0.75000000       0.40575000 </v>
    <v>       0.41666667       0.69444444       0.40575000 </v>
    <v>       0.36111111       0.69444444       0.44345000 </v>
    <v>       0.41666667       0.75000000       0.44345000 </v>
    <v>       0.36111111       0.75000000       0.48115000 </v>
    <v>       0.41666667       0.69444444       0.48115000 </v>
    <v>       0.36111111       0.69444444       0.51885000 </v>
    <v>       0.41666667       0.75000000       0.51885000 </v>
    <v>       0.36111111       0.75000000       0.55655000 </v>
    <v>       0.41666667       0.69444444       0.55655000 </v>
    <v>       0.36111111       0.69444444       0.59425000 </v>
    <v>       0.41666667       0.75000000       0.59425000 </v>
    <v>       0.36111111       0.80555556       0.36805000 </v>
    <v>       0.41666667       0.86111111       0.36805000 </v>
    <v>       0.36111111       0.86111111       0.40575000 </v>
    <v>       0.41666667       0.80555556       0.40575000 </v>
    <v>       0.36111111       0.80555556       0.44345000 </v>
    <v>       0.41666667       0.86111111       0.44345000 </v>
    <v>       0.36111111       0.86111111       0.48115000 </v>
    <v>       0.41666667       0.80555556       0.48115000 </v>
    <v>       0.36111111       0.80555556       0.51885000 </v>
    <v>       0.41666667       0.86111111       0.51885000 </v>
    <v>       0.36111111       0.86111111       0.55655000 </v>
    <v>       0.41666667       0.80555556       0.55655000 </v>
    <v>       0.36111111       0.80555556       0.59425000 </v>
    <v>       0.41666667       0.86111111       0.59425000 </v>
    <v>       0.36111111       0.91666667       0.36805000 </v>
    <v>       0.41666667       0.97222222       0.36805000 </v>
    <v>       0.36111111       0.97222222       0.40575000 </v>
    <v>       0.41666667       0.91666667       0.40575000 </v>
    <v>       0.36111111       0.91666667       0.44345000 </v>
    <v>       0.41666667       0.97222222       0.44345000 </v>
    <v>       0.36111111       0.97222222       0.48115000 </v>
    <v>       0.41666667       0.91666667       0.48115000 </v>
    <v>       0.36111111       0.91666667       0.51885000 </v>
    <v>       0.41666667       0.97222222       0.51885000 </v>
    <v>       0.36111111       0.97222222       0.55655000 </v>
    <v>       0.41666667       0.91666667       0.55655000 </v>
    <v>       0.36111111       0.91666667       0.59425000 </v>
    <v>       0.41666667       0.97222222       0.59425000 </v>
    <v>       0.47222222       0.02777778       0.36805000 </v>
    <v>       0.52777778       0.08333333       0.36805000 </v>
    <v>       0.47222222       0.08333333       0.40575000 </v>
    <v>       0.52777778       0.02777778       0.40575000 </v>
    <v>       0.47222222       0.02777778       0.44345000 </v>
    <v>       0.52777778       0.08333333       0.44345000 </v>
    <v>       0.47222222       0.08333333       0.48115000 </v>
    <v>       0.52777778       0.02777778       0.48115000 </v>
    <v>       0.47222222       0.02777778       0.51885000 </v>
    <v>       0.52777778       0.08333333       0.51885000 </v>
    <v>       0.47222222       0.08333333       0.55655000 </v>
    <v>       0.52777778       0.02777778       0.55655000 </v>
    <v>       0.47222222       0.02777778       0.59425000 </v>
    <v>       0.52777778       0.08333333       0.59425000 </v>
    <v>       0.47222222       0.13888889       0.36805000 </v>
    <v>       0.52777778       0.19444444       0.36805000 </v>
    <v>       0.47222222       0.19444444       0.40575000 </v>
    <v>       0.52777778       0.13888889       0.40575000 </v>
    <v>       0.47222222       0.13888889       0.44345000 </v>
    <v>       0.52777778       0.19444444       0.44345000 </v>
    <v>       0.47222222       0.19444444       0.48115000 </v>
    <v>       0.52777778       0.13888889       0.48115000 </v>
    <v>       0.47222222       0.13888889       0.51885000 </v>
    <v>       0.52777778       0.19444444       0.51885000 </v>
    <v>       0.47222222       0.19444444       0.55655000 </v>
    <v>       0.52777778       0.13888889       0.55655000 </v>
    <v>       0.47222222       0.13888889       0.59425000 </v>
    <v>       0.52777778       0.19444444       0.59425000 </v>
    <v>       0.47222222       0.25000000       0.36805000 </v>
    <v>       0.52777778       0.30555556       0.36805000 </v>
    <v>       0.47222222       0.30555556       0.40575000 </v>
    <v>       0.52777778       0.25000000       0.40575000 </v>
    <v>       0.47222222       0.25000000       0.44345000 </v>
    <v>       0.52777778       0.30555556       0.44345000 </v>
    <v>       0.47222222       0.30555556       0.48115000 </v>
    <v>       0.52777778       0.25000000       0.48115000 </v>
    <v>       0.47222222       0.25000000       0.51885000 </v>
    <v>       0.52777778       0.30555556       0.51885000 </v>
    <v>       0.47222222       0.30555556       0.55655000 </v>
    <v>       0.52777778       0.25000000       0.55655000 </v>
    <v>       0.47222222       0.25000000       0.59425000 </v>
    <v>       0.52777778       0.30555556       0.59425000 </v>
    <v>       0.47222222       0.36111111       0.36805000 </v>
    <v>       0.52777778       0.41666667       0.36805000 </v>
    <v>       0.47222222       0.41666667       0.40575000 </v>
    <v>       0.52777778       0.36111111       0.40575000 </v>
    <v>       0.47222222       0.36111111       0.44345000 </v>
    <v>       0.52777778       0.41666667       0.44345000 </v>
    <v>       0.47222222       0.41666667       0.48115000 </v>
    <v>       0.52777778       0.36111111       0.48115000 </v>
    <v>       0.47222222       0.36111111       0.51885000 </v>
    <v>       0.52777778       0.41666667       0.51885000 </v>
    <v>       0.47222222       0.41666667       0.55655000 </v>
    <v>       0.52777778       0.36111111       0.55655000 </v>
    <v>       0.47222222       0.36111111       0.59425000 </v>
    <v>       0.52777778       0.41666667       0.59425000 </v>
    <v>       0.47222222       0.47222222       0.36805000 </v>
    <v>       0.52777778       0.52777778       0.36805000 </v>
    <v>       0.47222222       0.52777778       0.40575000 </v>
    <v>       0.52777778       0.47222222       0.40575000 </v>
    <v>       0.47222222       0.47222222       0.44345000 </v>
    <v>       0.52777778       0.52777778       0.44345000 </v>
    <v>       0.47222222       0.52777778       0.48115000 </v>
    <v>       0.52777778       0.47222222       0.48115000 </v>
    <v>       0.47222222       0.47222222       0.51885000 </v>
    <v>       0.52777778       0.52777778       0.51885000 </v>
    <v>       0.47222222       0.52777778       0.55655000 </v>
    <v>       0.52777778       0.47222222       0.55655000 </v>
    <v>       0.47222222       0.47222222       0.59425000 </v>
    <v>       0.52777778       0.52777778       0.59425000 </v>
    <v>       0.47222222       0.58333333       0.36805000 </v>
    <v>       0.52777778       0.63888889       0.36805000 </v>
    <v>       0.47222222       0.63888889       0.40575000 </v>
    <v>       0.52777778       0.58333333       0.40575000 </v>
    <v>       0.47222222       0.58333333       0.44345000 </v>
    <v>       0.52777778       0.63888889       0.44345000 </v>
    <v>       0.47222222       0.63888889       0.48115000 </v>
    <v>       0.52777778       0.58333333       0.48115000 </v>
    <v>       0.47222222       0.58333333       0.51885000 </v>
    <v>       0.52777778       0.63888889       0.51885000 </v>
    <v>       0.47222222       0.63888889       0.55655000 </v>
    <v>       0.52777778       0.58333333       0.55655000 </v>
    <v>       0.47222222       0.58333333       0.59425000 </v>
    <v>       0.52777778       0.63888889       0.59425000 </v>
    <v>       0.47222222       0.69444444       0.36805000 </v>
    <v>       0.52777778       0.75000000       0.36805000 </v>
    <v>       0.47222222       0.75000000       0.40575000 </v>
    <v>       0.52777778       0.69444444       0.40575000 </v>
    <v>       0.47222222       0.69444444       0.44345000 </v>
    <v>       0.52777778       0.75000000       0.44345000 </v>
    <v>       0.47222222       0.75000000       0.48115000 </v>
    <v>       0.52777778       0.69444444       0.48115000 </v>
    <v>       0.47222222       0.69444444       0.51885000 </v>
    <v>       0.52777778       0.75000000       0.51885000 </v>
    <v>       0.47222222       0.75000000       0.55655000 </v>
    <v>       0.52777778       0.69444444       0.55655000 </v>
    <v>       0.47222222       0.69444444       0.59425000 </v>
    <v>       0.52777778       0.75000000       0.59425000 </v>
    <v>       0.47222222       0.80555556       0.36805000 </v>
    <v>       0.52777778       0.86111111       0.36805000 </v>
    <v>       0.47222222       0.86111111       0.40575000 </v>
    <v>       0.52777778       0.80555556       0.40575000 </v>
    <v>       0.47222222       0.80555556       0.44345000 </v>
    <v>       0.52777778       0.86111111       0.44345000 </v>
    <v>       0.47222222       0.86111111       0.48115000 </v>
    <v>       0.52777778       0.80555556       0.48115000 </v>
    <v>       0.47222222       0.80555556       0.51885000 </v>
    <v>       0.52777778       0.86111111       0.51885000 </v>
    <v>       0.47222222       0.86111111       0.55655000 </v>
    <v>       0.52777778       0.80555556       0.55655000 </v>
    <v>       0.47222222       0.80555556       0.59425000 </v>
    <v>       0.52777778       0.86111111       0.59425000 </v>
    <v>       0.47222222       0.91666667       0.36805000 </v>
    <v>       0.52777778       0.97222222       0.36805000 </v>
    <v>       0.47222222       0.97222222       0.40575000 </v>
    <v>       0.52777778       0.91666667       0.40575000 </v>
    <v>       0.47222222       0.91666667       0.44345000 </v>
    <v>       0.52777778       0.97222222       0.44345000 </v>
    <v>       0.47222222       0.97222222       0.48115000 </v>
    <v>       0.52777778       0.91666667       0.48115000 </v>
    <v>       0.47222222       0.91666667       0.51885000 </v>
    <v>       0.52777778       0.97222222       0.51885000 </v>
    <v>       0.47222222       0.97222222       0.55655000 </v>
    <v>       0.52777778       0.91666667       0.55655000 </v>
    <v>       0.47222222       0.91666667       0.59425000 </v>
    <v>       0.52777778       0.97222222       0.59425000 </v>
    <v>       0.58333333       0.02777778       0.36805000 </v>
    <v>       0.63888889       0.08333333       0.36805000 </v>
    <v>       0.58333333       0.08333333       0.40575000 </v>
    <v>       0.63888889       0.02777778       0.40575000 </v>
    <v>       0.58333333       0.02777778       0.44345000 </v>
    <v>       0.63888889       0.08333333       0.44345000 </v>
    <v>       0.58333333       0.08333333       0.48115000 </v>
    <v>       0.63888889       0.02777778       0.48115000 </v>
    <v>       0.58333333       0.02777778       0.51885000 </v>
    <v>       0.63888889       0.08333333       0.51885000 </v>
    <v>       0.58333333       0.08333333       0.55655000 </v>
    <v>       0.63888889       0.02777778       0.55655000 </v>
    <v>       0.58333333       0.02777778       0.59425000 </v>
    <v>       0.63888889       0.08333333       0.59425000 </v>
    <v>       0.58333333       0.13888889       0.36805000 </v>
    <v>       0.63888889       0.19444444       0.36805000 </v>
    <v>       0.58333333       0.19444444       0.40575000 </v>
    <v>       0.63888889       0.13888889       0.40575000 </v>
    <v>       0.58333333       0.13888889       0.44345000 </v>
    <v>       0.63888889       0.19444444       0.44345000 </v>
    <v>       0.58333333       0.19444444       0.48115000 </v>
    <v>       0.63888889       0.13888889       0.48115000 </v>
    <v>       0.58333333       0.13888889       0.51885000 </v>
    <v>       0.63888889       0.19444444       0.51885000 </v>
    <v>       0.58333333       0.19444444       0.55655000 </v>
    <v>       0.63888889       0.13888889       0.55655000 </v>
    <v>       0.58333333       0.13888889       0.59425000 </v>
    <v>       0.63888889       0.19444444       0.59425000 </v>
    <v>       0.58333333       0.25000000       0.36805000 </v>
    <v>       0.63888889       0.30555556       0.36805000 </v>
    <v>       0.58333333       0.30555556       0.40575000 </v>
    <v>       0.63888889       0.25000000       0.40575000 </v>
    <v>       0.58333333       0.25000000       0.44345000 </v>
    <v>       0.63888889       0.30555556       0.44345000 </v>
    <v>       0.58333333       0.30555556       0.48115000 </v>
    <v>       0.63888889       0.25000000       0.48115000 </v>
    <v>       0.58333333       0.25000000       0.51885000 </v>
    <v>       0.63888889       0.30555556       0.51885000 </v>
    <v>       0.58333333       0.30555556       0.55655000 </v>
    <v>       0.63888889       0.25000000       0.55655000 </v>
    <v>       0.58333333       0.25000000       0.59425000 </v>
    <v>       0.63888889       0.30555556       0.59425000 </v>
    <v>       0.58333333       0.36111111       0.36805000 </v>
    <v>       0.63888889       0.41666667       0.36805000 </v>
    <v>       0.58333333       0.41666667       0.40575000 </v>
    <v>       0.63888889       0.36111111       0.40575000 </v>
    <v>       0.58333333       0.36111111       0.44345000 </v>
    <v>       0.63888889       0.41666667       0.44345000 </v>
    <v>       0.58333333       0.41666667       0.48115000 </v>
    <v>       0.63888889       0.36111111       0.48115000 </v>
    <v>       0.58333333       0.36111111       0.51885000 </v>
    <v>       0.63888889       0.41666667       0.51885000 </v>
    <v>       0.58333333       0.41666667       0.55655000 </v>
    <v>       0.63888889       0.36111111       0.55655000 </v>
    <v>       0.58333333       0.36111111       0.59425000 </v>
    <v>       0.63888889       0.41666667       0.59425000 </v>
    <v>       0.58333333       0.47222222       0.36805000 </v>
    <v>       0.63888889       0.52777778       0.36805000 </v>
    <v>       0.58333333       0.52777778       0.40575000 </v>
    <v>       0.63888889       0.47222222       0.40575000 </v>
    <v>       0.58333333       0.47222222       0.44345000 </v>
    <v>       0.63888889       0.52777778       0.44345000 </v>
    <v>       0.58333333       0.52777778       0.48115000 </v>
    <v>       0.63888889       0.47222222       0.48115000 </v>
    <v>       0.58333333       0.47222222       0.51885000 </v>
    <v>       0.63888889       0.52777778       0.51885000 </v>
    <v>       0.58333333       0.52777778       0.55655000 </v>
    <v>       0.63888889       0.47222222       0.55655000 </v>
    <v>       0.58333333       0.47222222       0.59425000 </v>
    <v>       0.63888889       0.52777778       0.59425000 </v>
    <v>       0.58333333       0.58333333       0.36805000 </v>
    <v>       0.63888889       0.63888889       0.36805000 </v>
    <v>       0.58333333       0.63888889       0.40575000 </v>
    <v>       0.63888889       0.58333333       0.40575000 </v>
    <v>       0.58333333       0.58333333       0.44345000 </v>
    <v>       0.63888889       0.63888889       0.44345000 </v>
    <v>       0.58333333       0.63888889       0.48115000 </v>
    <v>       0.63888889       0.58333333       0.48115000 </v>
    <v>       0.58333333       0.58333333       0.51885000 </v>
    <v>       0.63888889       0.63888889       0.51885000 </v>
    <v>       0.58333333       0.63888889       0.55655000 </v>
    <v>       0.63888889       0.58333333       0.55655000 </v>
    <v>       0.58333333       0.58333333       0.59425000 </v>
    <v>       0.63888889       0.63888889       0.59425000 </v>
    <v>       0.58333333       0.69444444       0.36805000 </v>
    <v>       0.63888889       0.75000000       0.36805000 </v>
    <v>       0.58333333       0.75000000       0.40575000 </v>
    <v>       0.63888889       0.69444444       0.40575000 </v>
    <v>       0.58333333       0.69444444       0.44345000 </v>
    <v>       0.63888889       0.75000000       0.44345000 </v>
    <v>       0.58333333       0.75000000       0.48115000 </v>
    <v>       0.63888889       0.69444444       0.48115000 </v>
    <v>       0.58333333       0.69444444       0.51885000 </v>
    <v>       0.63888889       0.75000000       0.51885000 </v>
    <v>       0.58333333       0.75000000       0.55655000 </v>
    <v>       0.63888889       0.69444444       0.55655000 </v>
    <v>       0.58333333       0.69444444       0.59425000 </v>
    <v>       0.63888889       0.75000000       0.59425000 </v>
    <v>       0.58333333       0.80555556       0.36805000 </v>
    <v>       0.63888889       0.86111111       0.36805000 </v>
    <v>       0.58333333       0.86111111       0.40575000 </v>
    <v>       0.63888889       0.80555556       0.40575000 </v>
    <v>       0.58333333       0.80555556       0.44345000 </v>
    <v>       0.63888889       0.86111111       0.44345000 </v>
    <v>       0.58333333       0.86111111       0.48115000 </v>
    <v>       0.63888889       0.80555556       0.48115000 </v>
    <v>       0.58333333       0.80555556       0.51885000 </v>
    <v>       0.63888889       0.86111111       0.51885000 </v>
    <v>       0.58333333       0.86111111       0.55655000 </v>
    <v>       0.63888889       0.80555556       0.55655000 </v>
    <v>       0.58333333       0.80555556       0.59425000 </v>
    <v>       0.63888889       0.86111111       0.59425000 </v>
    <v>       0.58333333       0.91666667       0.36805000 </v>
    <v>       0.63888889       0.97222222       0.36805000 </v>
    <v>       0.58333333       0.97222222       0.40575000 </v>
    <v>       0.63888889       0.91666667       0.40575000 </v>
    <v>       0.58333333       0.91666667       0.44345000 </v>
    <v>       0.63888889       0.97222222       0.44345000 </v>
    <v>       0.58333333       0.97222222       0.48115000 </v>
    <v>       0.63888889       0.91666667       0.48115000 </v>
    <v>       0.58333333       0.91666667       0.51885000 </v>
    <v>       0.63888889       0.97222222       0.51885000 </v>
    <v>       0.58333333       0.97222222       0.55655000 </v>
    <v>       0.63888889       0.91666667       0.55655000 </v>
    <v>       0.58333333       0.91666667       0.59425000 </v>
    <v>       0.63888889       0.97222222       0.59425000 </v>
    <v>       0.69444444       0.02777778       0.36805000 </v>
    <v>       0.75000000       0.08333333       0.36805000 </v>
    <v>       0.69444444       0.08333333       0.40575000 </v>
    <v>       0.75000000       0.02777778       0.40575000 </v>
    <v>       0.69444444       0.02777778       0.44345000 </v>
    <v>       0.75000000       0.08333333       0.44345000 </v>
    <v>       0.69444444       0.08333333       0.48115000 </v>
    <v>       0.75000000       0.02777778       0.48115000 </v>
    <v>       0.69444444       0.02777778       0.51885000 </v>
    <v>       0.75000000       0.08333333       0.51885000 </v>
    <v>       0.69444444       0.08333333       0.55655000 </v>
    <v>       0.75000000       0.02777778       0.55655000 </v>
    <v>       0.69444444       0.02777778       0.59425000 </v>
    <v>       0.75000000       0.08333333       0.59425000 </v>
    <v>       0.69444444       0.13888889       0.36805000 </v>
    <v>       0.75000000       0.19444444       0.36805000 </v>
    <v>       0.69444444       0.19444444       0.40575000 </v>
    <v>       0.75000000       0.13888889       0.40575000 </v>
    <v>       0.69444444       0.13888889       0.44345000 </v>
    <v>       0.75000000       0.19444444       0.44345000 </v>
    <v>       0.69444444       0.19444444       0.48115000 </v>
    <v>       0.75000000       0.13888889       0.48115000 </v>
    <v>       0.69444444       0.13888889       0.51885000 </v>
    <v>       0.75000000       0.19444444       0.51885000 </v>
    <v>       0.69444444       0.19444444       0.55655000 </v>
    <v>       0.75000000       0.13888889       0.55655000 </v>
    <v>       0.69444444       0.13888889       0.59425000 </v>
    <v>       0.75000000       0.19444444       0.59425000 </v>
    <v>       0.69444444       0.25000000       0.36805000 </v>
    <v>       0.75000000       0.30555556       0.36805000 </v>
    <v>       0.69444444       0.30555556       0.40575000 </v>
    <v>       0.75000000       0.25000000       0.40575000 </v>
    <v>       0.69444444       0.25000000       0.44345000 </v>
    <v>       0.75000000       0.30555556       0.44345000 </v>
    <v>       0.69444444       0.30555556       0.48115000 </v>
    <v>       0.75000000       0.25000000       0.48115000 </v>
    <v>       0.69444444       0.25000000       0.51885000 </v>
    <v>       0.75000000       0.30555556       0.51885000 </v>
    <v>       0.69444444       0.30555556       0.55655000 </v>
    <v>       0.75000000       0.25000000       0.55655000 </v>
    <v>       0.69444444       0.25000000       0.59425000 </v>
    <v>       0.75000000       0.30555556       0.59425000 </v>
    <v>       0.69444444       0.36111111       0.36805000 </v>
    <v>       0.75000000       0.41666667       0.36805000 </v>
    <v>       0.69444444       0.41666667       0.40575000 </v>
    <v>       0.75000000       0.36111111       0.40575000 </v>
    <v>       0.69444444       0.36111111       0.44345000 </v>
    <v>       0.75000000       0.41666667       0.44345000 </v>
    <v>       0.69444444       0.41666667       0.48115000 </v>
    <v>       0.75000000       0.36111111       0.48115000 </v>
    <v>       0.69444444       0.36111111       0.51885000 </v>
    <v>       0.75000000       0.41666667       0.51885000 </v>
    <v>       0.69444444       0.41666667       0.55655000 </v>
    <v>       0.75000000       0.36111111       0.55655000 </v>
    <v>       0.69444444       0.36111111       0.59425000 </v>
    <v>       0.75000000       0.41666667       0.59425000 </v>
    <v>       0.69444444       0.47222222       0.36805000 </v>
    <v>       0.75000000       0.52777778       0.36805000 </v>
    <v>       0.69444444       0.52777778       0.40575000 </v>
    <v>       0.75000000       0.47222222       0.40575000 </v>
    <v>       0.69444444       0.47222222       0.44345000 </v>
    <v>       0.75000000       0.52777778       0.44345000 </v>
    <v>       0.69444444       0.52777778       0.48115000 </v>
    <v>       0.75000000       0.47222222       0.48115000 </v>
    <v>       0.69444444       0.47222222       0.51885000 </v>
    <v>       0.75000000       0.52777778       0.51885000 </v>
    <v>       0.69444444       0.52777778       0.55655000 </v>
    <v>       0.75000000       0.47222222       0.55655000 </v>
    <v>       0.69444444       0.47222222       0.59425000 </v>
    <v>       0.75000000       0.52777778       0.59425000 </v>
    <v>       0.69444444       0.58333333       0.36805000 </v>
    <v>       0.75000000       0.63888889       0.36805000 </v>
    <v>       0.69444444       0.63888889       0.40575000 </v>
    <v>       0.75000000       0.58333333       0.40575000 </v>
    <v>       0.69444444       0.58333333       0.44345000 </v>
    <v>       0.75000000       0.63888889       0.44345000 </v>
    <v>       0.69444444       0.63888889       0.48115000 </v>
    <v>       0.75000000       0.58333333       0.48115000 </v>
    <v>       0.69444444       0.58333333       0.51885000 </v>
    <v>       0.75000000       0.63888889       0.51885000 </v>
    <v>       0.69444444       0.63888889       0.55655000 </v>
    <v>       0.75000000       0.58333333       0.55655000 </v>
    <v>       0.69444444       0.58333333       0.59425000 </v>
    <v>       0.75000000       0.63888889       0.59425000 </v>
    <v>       0.69444444       0.69444444       0.36805000 </v>
    <v>       0.75000000       0.75000000       0.36805000 </v>
    <v>       0.69444444       0.75000000       0.40575000 </v>
    <v>       0.75000000       0.69444444       0.40575000 </v>
    <v>       0.69444444       0.69444444       0.44345000 </v>
    <v>       0.75000000       0.75000000       0.44345000 </v>
    <v>       0.69444444       0.75000000       0.48115000 </v>
    <v>       0.75000000       0.69444444       0.48115000 </v>
    <v>       0.69444444       0.69444444       0.51885000 </v>
    <v>       0.75000000       0.75000000       0.51885000 </v>
    <v>       0.69444444       0.75000000       0.55655000 </v>
    <v>       0.75000000       0.69444444       0.55655000 </v>
    <v>       0.69444444       0.69444444       0.59425000 </v>
    <v>       0.75000000       0.75000000       0.59425000 </v>
    <v>       0.69444444       0.80555556       0.36805000 </v>
    <v>       0.75000000       0.86111111       0.36805000 </v>
    <v>       0.69444444       0.86111111       0.40575000 </v>
    <v>       0.75000000       0.80555556       0.40575000 </v>
    <v>       0.69444444       0.80555556       0.44345000 </v>
    <v>       0.75000000       0.86111111       0.44345000 </v>
    <v>       0.69444444       0.86111111       0.48115000 </v>
    <v>       0.75000000       0.80555556       0.48115000 </v>
    <v>       0.69444444       0.80555556       0.51885000 </v>
    <v>       0.75000000       0.86111111       0.51885000 </v>
    <v>       0.69444444       0.86111111       0.55655000 </v>
    <v>       0.75000000       0.80555556       0.55655000 </v>
    <v>       0.69444444       0.80555556       0.59425000 </v>
    <v>       0.75000000       0.86111111       0.59425000 </v>
    <v>       0.69444444       0.91666667       0.36805000 </v>
    <v>       0.75000000       0.97222222       0.36805000 </v>
    <v>       0.69444444       0.97222222       0.40575000 </v>
    <v>       0.75000000       0.91666667       0.40575000 </v>
    <v>       0.69444444       0.91666667       0.44345000 </v>
    <v>       0.75000000       0.97222222       0.44345000 </v>
    <v>       0.69444444       0.97222222       0.48115000 </v>
    <v>       0.75000000       0.91666667       0.48115000 </v>
    <v>       0.69444444       0.91666667       0.51885000 </v>
    <v>       0.75000000       0.97222222       0.51885000 </v>
    <v>       0.69444444       0.97222222       0.55655000 </v>
    <v>       0.75000000       0.91666667       0.55655000 </v>
    <v>       0.69444444       0.91666667       0.59425000 </v>
    <v>       0.75000000       0.97222222       0.59425000 </v>
    <v>       0.80555556       0.02777778       0.36805000 </v>
    <v>       0.86111111       0.08333333       0.36805000 </v>
    <v>       0.80555556       0.08333333       0.40575000 </v>
    <v>       0.86111111       0.02777778       0.40575000 </v>
    <v>       0.80555556       0.02777778       0.44345000 </v>
    <v>       0.86111111       0.08333333       0.44345000 </v>
    <v>       0.80555556       0.08333333       0.48115000 </v>
    <v>       0.86111111       0.02777778       0.48115000 </v>
    <v>       0.80555556       0.02777778       0.51885000 </v>
    <v>       0.86111111       0.08333333       0.51885000 </v>
    <v>       0.80555556       0.08333333       0.55655000 </v>
    <v>       0.86111111       0.02777778       0.55655000 </v>
    <v>       0.80555556       0.02777778       0.59425000 </v>
    <v>       0.86111111       0.08333333       0.59425000 </v>
    <v>       0.80555556       0.13888889       0.36805000 </v>
    <v>       0.86111111       0.19444444       0.36805000 </v>
    <v>       0.80555556       0.19444444       0.40575000 </v>
    <v>       0.86111111       0.13888889       0.40575000 </v>
    <v>       0.80555556       0.13888889       0.44345000 </v>
    <v>       0.86111111       0.19444444       0.44345000 </v>
    <v>       0.80555556       0.19444444       0.48115000 </v>
    <v>       0.86111111       0.13888889       0.48115000 </v>
    <v>       0.80555556       0.13888889       0.51885000 </v>
    <v>       0.86111111       0.19444444       0.51885000 </v>
    <v>       0.80555556       0.19444444       0.55655000 </v>
    <v>       0.86111111       0.13888889       0.55655000 </v>
    <v>       0.80555556       0.13888889       0.59425000 </v>
    <v>       0.86111111       0.19444444       0.59425000 </v>
    <v>       0.80555556       0.25000000       0.36805000 </v>
    <v>       0.86111111       0.30555556       0.36805000 </v>
    <v>       0.80555556       0.30555556       0.40575000 </v>
    <v>       0.86111111       0.25000000       0.40575000 </v>
    <v>       0.80555556       0.25000000       0.44345000 </v>
    <v>       0.86111111       0.30555556       0.44345000 </v>
    <v>       0.80555556       0.30555556       0.48115000 </v>
    <v>       0.86111111       0.25000000       0.48115000 </v>
    <v>       0.80555556       0.25000000       0.51885000 </v>
    <v>       0.86111111       0.30555556       0.51885000 </v>
    <v>       0.80555556       0.30555556       0.55655000 </v>
    <v>       0.86111111       0.25000000       0.55655000 </v>
    <v>       0.80555556       0.25000000       0.59425000 </v>
    <v>       0.86111111       0.30555556       0.59425000 </v>
    <v>       0.80555556       0.36111111       0.36805000 </v>
    <v>       0.86111111       0.41666667       0.36805000 </v>
    <v>       0.80555556       0.41666667       0.40575000 </v>
    <v>       0.86111111       0.36111111       0.40575000 </v>
    <v>       0.80555556       0.36111111       0.44345000 </v>
    <v>       0.86111111       0.41666667       0.44345000 </v>
    <v>       0.80555556       0.41666667       0.48115000 </v>
    <v>       0.86111111       0.36111111       0.48115000 </v>
    <v>       0.80555556       0.36111111       0.51885000 </v>
    <v>       0.86111111       0.41666667       0.51885000 </v>
    <v>       0.80555556       0.41666667       0.55655000 </v>
    <v>       0.86111111       0.36111111       0.55655000 </v>
    <v>       0.80555556       0.36111111       0.59425000 </v>
    <v>       0.86111111       0.41666667       0.59425000 </v>
    <v>       0.80555556       0.47222222       0.36805000 </v>
    <v>       0.86111111       0.52777778       0.36805000 </v>
    <v>       0.80555556       0.52777778       0.40575000 </v>
    <v>       0.86111111       0.47222222       0.40575000 </v>
    <v>       0.80555556       0.47222222       0.44345000 </v>
    <v>       0.86111111       0.52777778       0.44345000 </v>
    <v>       0.80555556       0.52777778       0.48115000 </v>
    <v>       0.86111111       0.47222222       0.48115000 </v>
    <v>       0.80555556       0.47222222       0.51885000 </v>
    <v>       0.86111111       0.52777778       0.51885000 </v>
    <v>       0.80555556       0.52777778       0.55655000 </v>
    <v>       0.86111111       0.47222222       0.55655000 </v>
    <v>       0.80555556       0.47222222       0.59425000 </v>
    <v>       0.86111111       0.52777778       0.59425000 </v>
    <v>       0.80555556       0.58333333       0.36805000 </v>
    <v>       0.86111111       0.63888889       0.36805000 </v>
    <v>       0.80555556       0.63888889       0.40575000 </v>
    <v>       0.86111111       0.58333333       0.40575000 </v>
    <v>       0.80555556       0.58333333       0.44345000 </v>
    <v>       0.86111111       0.63888889       0.44345000 </v>
    <v>       0.80555556       0.63888889       0.48115000 </v>
    <v>       0.86111111       0.58333333       0.48115000 </v>
    <v>       0.80555556       0.58333333       0.51885000 </v>
    <v>       0.86111111       0.63888889       0.51885000 </v>
    <v>       0.80555556       0.63888889       0.55655000 </v>
    <v>       0.86111111       0.58333333       0.55655000 </v>
    <v>       0.80555556       0.58333333       0.59425000 </v>
    <v>       0.86111111       0.63888889       0.59425000 </v>
    <v>       0.80555556       0.69444444       0.36805000 </v>
    <v>       0.86111111       0.75000000       0.36805000 </v>
    <v>       0.80555556       0.75000000       0.40575000 </v>
    <v>       0.86111111       0.69444444       0.40575000 </v>
    <v>       0.80555556       0.69444444       0.44345000 </v>
    <v>       0.86111111       0.75000000       0.44345000 </v>
    <v>       0.80555556       0.75000000       0.48115000 </v>
    <v>       0.86111111       0.69444444       0.48115000 </v>
    <v>       0.80555556       0.69444444       0.51885000 </v>
    <v>       0.86111111       0.75000000       0.51885000 </v>
    <v>       0.80555556       0.75000000       0.55655000 </v>
    <v>       0.86111111       0.69444444       0.55655000 </v>
    <v>       0.80555556       0.69444444       0.59425000 </v>
    <v>       0.86111111       0.75000000       0.59425000 </v>
    <v>       0.80555556       0.80555556       0.36805000 </v>
    <v>       0.86111111       0.86111111       0.36805000 </v>
    <v>       0.80555556       0.86111111       0.40575000 </v>
    <v>       0.86111111       0.80555556       0.40575000 </v>
    <v>       0.80555556       0.80555556       0.44345000 </v>
    <v>       0.86111111       0.86111111       0.44345000 </v>
    <v>       0.80555556       0.86111111       0.48115000 </v>
    <v>       0.86111111       0.80555556       0.48115000 </v>
    <v>       0.80555556       0.80555556       0.51885000 </v>
    <v>       0.86111111       0.86111111       0.51885000 </v>
    <v>       0.80555556       0.86111111       0.55655000 </v>
    <v>       0.86111111       0.80555556       0.55655000 </v>
    <v>       0.80555556       0.80555556       0.59425000 </v>
    <v>       0.86111111       0.86111111       0.59425000 </v>
    <v>       0.80555556       0.91666667       0.36805000 </v>
    <v>       0.86111111       0.97222222       0.36805000 </v>
    <v>       0.80555556       0.97222222       0.40575000 </v>
    <v>       0.86111111       0.91666667       0.40575000 </v>
    <v>       0.80555556       0.91666667       0.44345000 </v>
    <v>       0.86111111       0.97222222       0.44345000 </v>
    <v>       0.80555556       0.97222222       0.48115000 </v>
    <v>       0.86111111       0.91666667       0.48115000 </v>
    <v>       0.80555556       0.91666667       0.51885000 </v>
    <v>       0.86111111       0.97222222       0.51885000 </v>
    <v>       0.80555556       0.97222222       0.55655000 </v>
    <v>       0.86111111       0.91666667       0.55655000 </v>
    <v>       0.80555556       0.91666667       0.59425000 </v>
    <v>       0.86111111       0.97222222       0.59425000 </v>
    <v>       0.91666667       0.02777778       0.36805000 </v>
    <v>       0.97222222       0.08333333       0.36805000 </v>
    <v>       0.91666667       0.08333333       0.40575000 </v>
    <v>       0.97222222       0.02777778       0.40575000 </v>
    <v>       0.91666667       0.02777778       0.44345000 </v>
    <v>       0.97222222       0.08333333       0.44345000 </v>
    <v>       0.91666667       0.08333333       0.48115000 </v>
    <v>       0.97222222       0.02777778       0.48115000 </v>
    <v>       0.91666667       0.02777778       0.51885000 </v>
    <v>       0.97222222       0.08333333       0.51885000 </v>
    <v>       0.91666667       0.08333333       0.55655000 </v>
    <v>       0.97222222       0.02777778       0.55655000 </v>
    <v>       0.91666667       0.02777778       0.59425000 </v>
    <v>       0.97222222       0.08333333       0.59425000 </v>
    <v>       0.91666667       0.13888889       0.36805000 </v>
    <v>       0.97222222       0.19444444       0.36805000 </v>
    <v>       0.91666667       0.19444444       0.40575000 </v>
    <v>       0.97222222       0.13888889       0.40575000 </v>
    <v>       0.91666667       0.13888889       0.44345000 </v>
    <v>       0.97222222       0.19444444       0.44345000 </v>
    <v>       0.91666667       0.19444444       0.48115000 </v>
    <v>       0.97222222       0.13888889       0.48115000 </v>
    <v>       0.91666667       0.13888889       0.51885000 </v>
    <v>       0.97222222       0.19444444       0.51885000 </v>
    <v>       0.91666667       0.19444444       0.55655000 </v>
    <v>       0.97222222       0.13888889       0.55655000 </v>
    <v>       0.91666667       0.13888889       0.59425000 </v>
    <v>       0.97222222       0.19444444       0.59425000 </v>
    <v>       0.91666667       0.25000000       0.36805000 </v>
    <v>       0.97222222       0.30555556       0.36805000 </v>
    <v>       0.91666667       0.30555556       0.40575000 </v>
    <v>       0.97222222       0.25000000       0.40575000 </v>
    <v>       0.91666667       0.25000000       0.44345000 </v>
    <v>       0.97222222       0.30555556       0.44345000 </v>
    <v>       0.91666667       0.30555556       0.48115000 </v>
    <v>       0.97222222       0.25000000       0.48115000 </v>
    <v>       0.91666667       0.25000000       0.51885000 </v>
    <v>       0.97222222       0.30555556       0.51885000 </v>
    <v>       0.91666667       0.30555556       0.55655000 </v>
    <v>       0.97222222       0.25000000       0.55655000 </v>
    <v>       0.91666667       0.25000000       0.59425000 </v>
    <v>       0.97222222       0.30555556       0.59425000 </v>
    <v>       0.91666667       0.36111111       0.36805000 </v>
    <v>       0.97222222       0.41666667       0.36805000 </v>
    <v>       0.91666667       0.41666667       0.40575000 </v>
    <v>       0.97222222       0.36111111       0.40575000 </v>
    <v>       0.91666667       0.36111111       0.44345000 </v>
    <v>       0.97222222       0.41666667       0.44345000 </v>
    <v>       0.91666667       0.41666667       0.48115000 </v>
    <v>       0.97222222       0.36111111       0.48115000 </v>
    <v>       0.91666667       0.36111111       0.51885000 </v>
    <v>       0.97222222       0.41666667       0.51885000 </v>
    <v>       0.91666667       0.41666667       0.55655000 </v>
    <v>       0.97222222       0.36111111       0.55655000 </v>
    <v>       0.91666667       0.36111111       0.59425000 </v>
    <v>       0.97222222       0.41666667       0.59425000 </v>
    <v>       0.91666667       0.47222222       0.36805000 </v>
    <v>       0.97222222       0.52777778       0.36805000 </v>
    <v>       0.91666667       0.52777778       0.40575000 </v>
    <v>       0.97222222       0.47222222       0.40575000 </v>
    <v>       0.91666667       0.47222222       0.44345000 </v>
    <v>       0.97222222       0.52777778       0.44345000 </v>
    <v>       0.91666667       0.52777778       0.48115000 </v>
    <v>       0.97222222       0.47222222       0.48115000 </v>
    <v>       0.91666667       0.47222222       0.51885000 </v>
    <v>       0.97222222       0.52777778       0.51885000 </v>
    <v>       0.91666667       0.52777778       0.55655000 </v>
    <v>       0.97222222       0.47222222       0.55655000 </v>
    <v>       0.91666667       0.47222222       0.59425000 </v>
    <v>       0.97222222       0.52777778       0.59425000 </v>
    <v>       0.91666667       0.58333333       0.36805000 </v>
    <v>       0.97222222       0.63888889       0.36805000 </v>
    <v>       0.91666667       0.63888889       0.40575000 </v>
    <v>       0.97222222       0.58333333       0.40575000 </v>
    <v>       0.91666667       0.58333333       0.44345000 </v>
    <v>       0.97222222       0.63888889       0.44345000 </v>
    <v>       0.91666667       0.63888889       0.48115000 </v>
    <v>       0.97222222       0.58333333       0.48115000 </v>
    <v>       0.91666667       0.58333333       0.51885000 </v>
    <v>       0.97222222       0.63888889       0.51885000 </v>
    <v>       0.91666667       0.63888889       0.55655000 </v>
    <v>       0.97222222       0.58333333       0.55655000 </v>
    <v>       0.91666667       0.58333333       0.59425000 </v>
    <v>       0.97222222       0.63888889       0.59425000 </v>
    <v>       0.91666667       0.69444444       0.36805000 </v>
    <v>       0.97222222       0.75000000       0.36805000 </v>
    <v>       0.91666667       0.75000000       0.40575000 </v>
    <v>       0.97222222       0.69444444       0.40575000 </v>
    <v>       0.91666667       0.69444444       0.44345000 </v>
    <v>       0.97222222       0.75000000       0.44345000 </v>
    <v>       0.91666667       0.75000000       0.48115000 </v>
    <v>       0.97222222       0.69444444       0.48115000 </v>
    <v>       0.91666667       0.69444444       0.51885000 </v>
    <v>       0.97222222       0.75000000       0.51885000 </v>
    <v>       0.91666667       0.75000000       0.55655000 </v>
    <v>       0.97222222       0.69444444       0.55655000 </v>
    <v>       0.91666667       0.69444444       0.59425000 </v>
    <v>       0.97222222       0.75000000       0.59425000 </v>
    <v>       0.91666667       0.80555556       0.36805000 </v>
    <v>       0.97222222       0.86111111       0.36805000 </v>
    <v>       0.91666667       0.86111111       0.40575000 </v>
    <v>       0.97222222       0.80555556       0.40575000 </v>
    <v>       0.91666667       0.80555556       0.44345000 </v>
    <v>       0.97222222       0.86111111       0.44345000 </v>
    <v>       0.91666667       0.86111111       0.48115000 </v>
    <v>       0.97222222       0.80555556       0.48115000 </v>
    <v>       0.91666667       0.80555556       0.51885000 </v>
    <v>       0.97222222       0.86111111       0.51885000 </v>
    <v>       0.91666667       0.86111111       0.55655000 </v>
    <v>       0.97222222       0.80555556       0.55655000 </v>
    <v>       0.91666667       0.80555556       0.59425000 </v>
    <v>       0.97222222       0.86111111       0.59425000 </v>
    <v>       0.91666667       0.91666667       0.36805000 </v>
    <v>       0.97222222       0.97222222       0.36805000 </v>
    <v>       0.91666667       0.97222222       0.40575000 </v>
    <v>       0.97222222       0.91666667       0.40575000 </v>
    <v>       0.91666667       0.91666667       0.44345000 </v>
    <v>       0.97222222       0.97222222       0.44345000 </v>
    <v>       0.91666667       0.97222222       0.48115000 </v>
    <v>       0.97222222       0.91666667       0.48115000 </v>
    <v>       0.91666667       0.91666667       0.51885000 </v>
    <v>       0.97222222       0.97222222       0.51885000 </v>
    <v>       0.91666667       0.97222222       0.55655000 </v>
    <v>       0.97222222       0.91666667       0.55655000 </v>
    <v>       0.91666667       0.91666667       0.59425000 </v>
    <v>       0.97222222       0.97222222       0.59425000 </v>
    <v>       0.39787798       0.44208665       0.72545000 </v>
    <v>       0.42859614       0.46901049       0.71860500 </v>
    <v>       0.43806398       0.46586899       0.68869104 </v>
    <v>       0.46878078       0.49279546       0.68184800 </v>
    <v>       0.41452505       0.47211264       0.67696704 </v>
    <v>       0.50585662       0.51206920       0.64144804 </v>
    <v>       0.45213504       0.46276617       0.73033102 </v>
    <v>       0.40665031       0.41495149       0.72114600 </v>
    <v>       0.49231969       0.48655113       0.69357104 </v>
    <v>       0.46000978       0.51992732       0.68615200 </v>
    <v>       0.41982514       0.49614232       0.72291102 </v>
    <v>       0.44683495       0.43873646       0.68438704 </v>
    <v>       0.37434041       0.44832765       0.71372600 </v>
    <v>       0.39130156       0.44426858       0.74623402 </v>
    <v>       0.47972370       0.48916581       0.64727200 </v>
   </varray>
  </structure>
  <varray name="primitive_index" >
   <v type="int" >        1 </v>
   <v type="int" >        2 </v>
   <v type="int" >        3 </v>
   <v type="int" >        4 </v>
   <v type="int" >        5 </v>
   <v type="int" >        6 </v>
   <v type="int" >        7 </v>
   <v type="int" >        8 </v>
   <v type="int" >        9 </v>
   <v type="int" >       10 </v>
   <v type="int" >       11 </v>
   <v type="int" >       12 </v>
   <v type="int" >       13 </v>
   <v type="int" >       14 </v>
   <v type="int" >       15 </v>
   <v type="int" >       16 </v>
   <v type="int" >       17 </v>
   <v type="int" >       18 </v>
   <v type="int" >       19 </v>
   <v type="int" >       20 </v>
   <v type="int" >       21 </v>
   <v type="int" >       22 </v>
   <v type="int" >       23 </v>
   <v type="int" >       24 </v>
   <v type="int" >       25 </v>
   <v type="int" >       26 </v>
   <v type="int" >       27 </v>
   <v type="int" >       28 </v>
   <v type="int" >       29 </v>
   <v type="int" >       30 </v>
   <v type="int" >       31 </v>
   <v type="int" >       32 </v>
   <v type="int" >       33 </v>
   <v type="int" >       34 </v>
   <v type="int" >       35 </v>
   <v type="int" >       36 </v>
   <v type="int" >       37 </v>
   <v type="int" >       38 </v>
   <v type="int" >       39 </v>
   <v type="int" >       40 </v>
   <v type="int" >       41 </v>
   <v type="int" >       42 </v>
   <v type="int" >       43 </v>
   <v type="int" >       44 </v>
   <v type="int" >       45 </v>
   <v type="int" >       46 </v>
   <v type="int" >       47 </v>
   <v type="int" >       48 </v>
   <v type="int" >       49 </v>
   <v type="int" >       50 </v>
   <v type="int" >       51 </v>
   <v type="int" >       52 </v>
   <v type="int" >       53 </v>
   <v type="int" >       54 </v>
   <v type="int" >       55 </v>
   <v type="int" >       56 </v>
   <v type="int" >       57 </v>
   <v type="int" >       58 </v>
   <v type="int" >       59 </v>
   <v type="int" >       60 </v>
   <v type="int" >       61 </v>
   <v type="int" >       62 </v>
   <v type="int" >       63 </v>
   <v type="int" >       64 </v>
   <v type="int" >       65 </v>
   <v type="int" >       66 </v>
   <v type="int" >       67 </v>
   <v type="int" >       68 </v>
   <v type="int" >       69 </v>
   <v type="int" >       70 </v>
   <v type="int" >       71 </v>
   <v type="int" >       72 </v>
   <v type="int" >       73 </v>
   <v type="int" >       74 </v>
   <v type="int" >       75 </v>
   <v type="int" >       76 </v>
   <v type="int" >       77 </v>
   <v type="int" >       78 </v>
   <v type="int" >       79 </v>
   <v type="int" >       80 </v>
   <v type="int" >       81 </v>
   <v type="int" >       82 </v>
   <v type="int" >       83 </v>
   <v type="int" >       84 </v>
   <v type="int" >       85 </v>
   <v type="int" >       86 </v>
   <v type="int" >       87 </v>
   <v type="int" >       88 </v>
   <v type="int" >       89 </v>
   <v type="int" >       90 </v>
   <v type="int" >       91 </v>
   <v type="int" >       92 </v>
   <v type="int" >       93 </v>
   <v type="int" >       94 </v>
   <v type="int" >       95 </v>
   <v type="int" >       96 </v>
   <v type="int" >       97 </v>
   <v type="int" >       98 </v>
   <v type="int" >       99 </v>
   <v type="int" >      100 </v>
   <v type="int" >      101 </v>
   <v type="int" >      102 </v>
   <v type="int" >      103 </v>
   <v type="int" >      104 </v>
   <v type="int" >      105 </v>
   <v type="int" >      106 </v>
   <v type="int" >      107 </v>
   <v type="int" >      108 </v>
   <v type="int" >      109 </v>
   <v type="int" >      110 </v>
   <v type="int" >      111 </v>
   <v type="int" >      112 </v>
   <v type="int" >      113 </v>
   <v type="int" >      114 </v>
   <v type="int" >      115 </v>
   <v type="int" >      116 </v>
   <v type="int" >      117 </v>
   <v type="int" >      118 </v>
   <v type="int" >      119 </v>
   <v type="int" >      120 </v>
   <v type="int" >      121 </v>
   <v type="int" >      122 </v>
   <v type="int" >      123 </v>
   <v type="int" >      124 </v>
   <v type="int" >      125 </v>
   <v type="int" >      126 </v>
   <v type="int" >      127 </v>
   <v type="int" >      128 </v>
   <v type="int" >      129 </v>
   <v type="int" >      130 </v>
   <v type="int" >      131 </v>
   <v type="int" >      132 </v>
   <v type="int" >      133 </v>
   <v type="int" >      134 </v>
   <v type="int" >      135 </v>
[...]
   <v>       0.75000000       0.58333333       0.48115000 </v>
   <v>       0.69444444       0.58333333       0.51885000 </v>
   <v>       0.75000000       0.63888889       0.51885000 </v>
   <v>       0.69444444       0.63888889       0.55655000 </v>
   <v>       0.75000000       0.58333333       0.55655000 </v>
   <v>       0.69444444       0.58333333       0.59425000 </v>
   <v>       0.75000000       0.63888889       0.59425000 </v>
   <v>       0.69444444       0.69444444       0.36805000 </v>
   <v>       0.75000000       0.75000000       0.36805000 </v>
   <v>       0.69444444       0.75000000       0.40575000 </v>
   <v>       0.75000000       0.69444444       0.40575000 </v>
   <v>       0.69444444       0.69444444       0.44345000 </v>
   <v>       0.75000000       0.75000000       0.44345000 </v>
   <v>       0.69444444       0.75000000       0.48115000 </v>
   <v>       0.75000000       0.69444444       0.48115000 </v>
   <v>       0.69444444       0.69444444       0.51885000 </v>
   <v>       0.75000000       0.75000000       0.51885000 </v>
   <v>       0.69444444       0.75000000       0.55655000 </v>
   <v>       0.75000000       0.69444444       0.55655000 </v>
   <v>       0.69444444       0.69444444       0.59425000 </v>
   <v>       0.75000000       0.75000000       0.59425000 </v>
   <v>       0.69444444       0.80555556       0.36805000 </v>
   <v>       0.75000000       0.86111111       0.36805000 </v>
   <v>       0.69444444       0.86111111       0.40575000 </v>
   <v>       0.75000000       0.80555556       0.40575000 </v>
   <v>       0.69444444       0.80555556       0.44345000 </v>
   <v>       0.75000000       0.86111111       0.44345000 </v>
   <v>       0.69444444       0.86111111       0.48115000 </v>
   <v>       0.75000000       0.80555556       0.48115000 </v>
   <v>       0.69444444       0.80555556       0.51885000 </v>
   <v>       0.75000000       0.86111111       0.51885000 </v>
   <v>       0.69444444       0.86111111       0.55655000 </v>
   <v>       0.75000000       0.80555556       0.55655000 </v>
   <v>       0.69444444       0.80555556       0.59425000 </v>
   <v>       0.75000000       0.86111111       0.59425000 </v>
   <v>       0.69444444       0.91666667       0.36805000 </v>
   <v>       0.75000000       0.97222222       0.36805000 </v>
   <v>       0.69444444       0.97222222       0.40575000 </v>
   <v>       0.75000000       0.91666667       0.40575000 </v>
   <v>       0.69444444       0.91666667       0.44345000 </v>
   <v>       0.75000000       0.97222222       0.44345000 </v>
   <v>       0.69444444       0.97222222       0.48115000 </v>
   <v>       0.75000000       0.91666667       0.48115000 </v>
   <v>       0.69444444       0.91666667       0.51885000 </v>
   <v>       0.75000000       0.97222222       0.51885000 </v>
   <v>       0.69444444       0.97222222       0.55655000 </v>
   <v>       0.75000000       0.91666667       0.55655000 </v>
   <v>       0.69444444       0.91666667       0.59425000 </v>
   <v>       0.75000000       0.97222222       0.59425000 </v>
   <v>       0.80555556       0.02777778       0.36805000 </v>
   <v>       0.86111111       0.08333333       0.36805000 </v>
   <v>       0.80555556       0.08333333       0.40575000 </v>
   <v>       0.86111111       0.02777778       0.40575000 </v>
   <v>       0.80555556       0.02777778       0.44345000 </v>
   <v>       0.86111111       0.08333333       0.44345000 </v>
   <v>       0.80555556       0.08333333       0.48115000 </v>
   <v>       0.86111111       0.02777778       0.48115000 </v>
   <v>       0.80555556       0.02777778       0.51885000 </v>
   <v>       0.86111111       0.08333333       0.51885000 </v>
   <v>       0.80555556       0.08333333       0.55655000 </v>
   <v>       0.86111111       0.02777778       0.55655000 </v>
   <v>       0.80555556       0.02777778       0.59425000 </v>
   <v>       0.86111111       0.08333333       0.59425000 </v>
   <v>       0.80555556       0.13888889       0.36805000 </v>
   <v>       0.86111111       0.19444444       0.36805000 </v>
   <v>       0.80555556       0.19444444       0.40575000 </v>
   <v>       0.86111111       0.13888889       0.40575000 </v>
   <v>       0.80555556       0.13888889       0.44345000 </v>
   <v>       0.86111111       0.19444444       0.44345000 </v>
   <v>       0.80555556       0.19444444       0.48115000 </v>
   <v>       0.86111111       0.13888889       0.48115000 </v>
   <v>       0.80555556       0.13888889       0.51885000 </v>
   <v>       0.86111111       0.19444444       0.51885000 </v>
   <v>       0.80555556       0.19444444       0.55655000 </v>
   <v>       0.86111111       0.13888889       0.55655000 </v>
   <v>       0.80555556       0.13888889       0.59425000 </v>
   <v>       0.86111111       0.19444444       0.59425000 </v>
   <v>       0.80555556       0.25000000       0.36805000 </v>
   <v>       0.86111111       0.30555556       0.36805000 </v>
   <v>       0.80555556       0.30555556       0.40575000 </v>
   <v>       0.86111111       0.25000000       0.40575000 </v>
   <v>       0.80555556       0.25000000       0.44345000 </v>
   <v>       0.86111111       0.30555556       0.44345000 </v>
   <v>       0.80555556       0.30555556       0.48115000 </v>
   <v>       0.86111111       0.25000000       0.48115000 </v>
   <v>       0.80555556       0.25000000       0.51885000 </v>
   <v>       0.86111111       0.30555556       0.51885000 </v>
   <v>       0.80555556       0.30555556       0.55655000 </v>
   <v>       0.86111111       0.25000000       0.55655000 </v>
   <v>       0.80555556       0.25000000       0.59425000 </v>
   <v>       0.86111111       0.30555556       0.59425000 </v>
   <v>       0.80555556       0.36111111       0.36805000 </v>
   <v>       0.86111111       0.41666667       0.36805000 </v>
   <v>       0.80555556       0.41666667       0.40575000 </v>
   <v>       0.86111111       0.36111111       0.40575000 </v>
   <v>       0.80555556       0.36111111       0.44345000 </v>
   <v>       0.86111111       0.41666667       0.44345000 </v>
   <v>       0.80555556       0.41666667       0.48115000 </v>
   <v>       0.86111111       0.36111111       0.48115000 </v>
   <v>       0.80555556       0.36111111       0.51885000 </v>
   <v>       0.86111111       0.41666667       0.51885000 </v>
   <v>       0.80555556       0.41666667       0.55655000 </v>
   <v>       0.86111111       0.36111111       0.55655000 </v>
   <v>       0.80555556       0.36111111       0.59425000 </v>
   <v>       0.86111111       0.41666667       0.59425000 </v>
   <v>       0.80555556       0.47222222       0.36805000 </v>
   <v>       0.86111111       0.52777778       0.36805000 </v>
   <v>       0.80555556       0.52777778       0.40575000 </v>
   <v>       0.86111111       0.47222222       0.40575000 </v>
   <v>       0.80555556       0.47222222       0.44345000 </v>
   <v>       0.86111111       0.52777778       0.44345000 </v>
   <v>       0.80555556       0.52777778       0.48115000 </v>
   <v>       0.86111111       0.47222222       0.48115000 </v>
   <v>       0.80555556       0.47222222       0.51885000 </v>
   <v>       0.86111111       0.52777778       0.51885000 </v>
   <v>       0.80555556       0.52777778       0.55655000 </v>
   <v>       0.86111111       0.47222222       0.55655000 </v>
   <v>       0.80555556       0.47222222       0.59425000 </v>
   <v>       0.86111111       0.52777778       0.59425000 </v>
   <v>       0.80555556       0.58333333       0.36805000 </v>
   <v>       0.86111111       0.63888889       0.36805000 </v>
   <v>       0.80555556       0.63888889       0.40575000 </v>
   <v>       0.86111111       0.58333333       0.40575000 </v>
   <v>       0.80555556       0.58333333       0.44345000 </v>
   <v>       0.86111111       0.63888889       0.44345000 </v>
   <v>       0.80555556       0.63888889       0.48115000 </v>
   <v>       0.86111111       0.58333333       0.48115000 </v>
   <v>       0.80555556       0.58333333       0.51885000 </v>
   <v>       0.86111111       0.63888889       0.51885000 </v>
   <v>       0.80555556       0.63888889       0.55655000 </v>
   <v>       0.86111111       0.58333333       0.55655000 </v>
   <v>       0.80555556       0.58333333       0.59425000 </v>
   <v>       0.86111111       0.63888889       0.59425000 </v>
   <v>       0.80555556       0.69444444       0.36805000 </v>
   <v>       0.86111111       0.75000000       0.36805000 </v>
   <v>       0.80555556       0.75000000       0.40575000 </v>
   <v>       0.86111111       0.69444444       0.40575000 </v>
   <v>       0.80555556       0.69444444       0.44345000 </v>
   <v>       0.86111111       0.75000000       0.44345000 </v>
   <v>       0.80555556       0.75000000       0.48115000 </v>
   <v>       0.86111111       0.69444444       0.48115000 </v>
   <v>       0.80555556       0.69444444       0.51885000 </v>
   <v>       0.86111111       0.75000000       0.51885000 </v>
   <v>       0.80555556       0.75000000       0.55655000 </v>
   <v>       0.86111111       0.69444444       0.55655000 </v>
   <v>       0.80555556       0.69444444       0.59425000 </v>
   <v>       0.86111111       0.75000000       0.59425000 </v>
   <v>       0.80555556       0.80555556       0.36805000 </v>
   <v>       0.86111111       0.86111111       0.36805000 </v>
   <v>       0.80555556       0.86111111       0.40575000 </v>
   <v>       0.86111111       0.80555556       0.40575000 </v>
   <v>       0.80555556       0.80555556       0.44345000 </v>
   <v>       0.86111111       0.86111111       0.44345000 </v>
   <v>       0.80555556       0.86111111       0.48115000 </v>
   <v>       0.86111111       0.80555556       0.48115000 </v>
   <v>       0.80555556       0.80555556       0.51885000 </v>
   <v>       0.86111111       0.86111111       0.51885000 </v>
   <v>       0.80555556       0.86111111       0.55655000 </v>
   <v>       0.86111111       0.80555556       0.55655000 </v>
   <v>       0.80555556       0.80555556       0.59425000 </v>
   <v>       0.86111111       0.86111111       0.59425000 </v>
   <v>       0.80555556       0.91666667       0.36805000 </v>
   <v>       0.86111111       0.97222222       0.36805000 </v>
   <v>       0.80555556       0.97222222       0.40575000 </v>
   <v>       0.86111111       0.91666667       0.40575000 </v>
   <v>       0.80555556       0.91666667       0.44345000 </v>
   <v>       0.86111111       0.97222222       0.44345000 </v>
   <v>       0.80555556       0.97222222       0.48115000 </v>
   <v>       0.86111111       0.91666667       0.48115000 </v>
   <v>       0.80555556       0.91666667       0.51885000 </v>
   <v>       0.86111111       0.97222222       0.51885000 </v>
   <v>       0.80555556       0.97222222       0.55655000 </v>
   <v>       0.86111111       0.91666667       0.55655000 </v>
   <v>       0.80555556       0.91666667       0.59425000 </v>
   <v>       0.86111111       0.97222222       0.59425000 </v>
   <v>       0.91666667       0.02777778       0.36805000 </v>
   <v>       0.97222222       0.08333333       0.36805000 </v>
   <v>       0.91666667       0.08333333       0.40575000 </v>
   <v>       0.97222222       0.02777778       0.40575000 </v>
   <v>       0.91666667       0.02777778       0.44345000 </v>
   <v>       0.97222222       0.08333333       0.44345000 </v>
   <v>       0.91666667       0.08333333       0.48115000 </v>
   <v>       0.97222222       0.02777778       0.48115000 </v>
   <v>       0.91666667       0.02777778       0.51885000 </v>
   <v>       0.97222222       0.08333333       0.51885000 </v>
   <v>       0.91666667       0.08333333       0.55655000 </v>
   <v>       0.97222222       0.02777778       0.55655000 </v>
   <v>       0.91666667       0.02777778       0.59425000 </v>
   <v>       0.97222222       0.08333333       0.59425000 </v>
   <v>       0.91666667       0.13888889       0.36805000 </v>
   <v>       0.97222222       0.19444444       0.36805000 </v>
   <v>       0.91666667       0.19444444       0.40575000 </v>
   <v>       0.97222222       0.13888889       0.40575000 </v>
   <v>       0.91666667       0.13888889       0.44345000 </v>
   <v>       0.97222222       0.19444444       0.44345000 </v>
   <v>       0.91666667       0.19444444       0.48115000 </v>
   <v>       0.97222222       0.13888889       0.48115000 </v>
   <v>       0.91666667       0.13888889       0.51885000 </v>
   <v>       0.97222222       0.19444444       0.51885000 </v>
   <v>       0.91666667       0.19444444       0.55655000 </v>
   <v>       0.97222222       0.13888889       0.55655000 </v>
   <v>       0.91666667       0.13888889       0.59425000 </v>
   <v>       0.97222222       0.19444444       0.59425000 </v>
   <v>       0.91666667       0.25000000       0.36805000 </v>
   <v>       0.97222222       0.30555556       0.36805000 </v>
   <v>       0.91666667       0.30555556       0.40575000 </v>
   <v>       0.97222222       0.25000000       0.40575000 </v>
   <v>       0.91666667       0.25000000       0.44345000 </v>
   <v>       0.97222222       0.30555556       0.44345000 </v>
   <v>       0.91666667       0.30555556       0.48115000 </v>
   <v>       0.97222222       0.25000000       0.48115000 </v>
   <v>       0.91666667       0.25000000       0.51885000 </v>
   <v>       0.97222222       0.30555556       0.51885000 </v>
   <v>       0.91666667       0.30555556       0.55655000 </v>
   <v>       0.97222222       0.25000000       0.55655000 </v>
   <v>       0.91666667       0.25000000       0.59425000 </v>
   <v>       0.97222222       0.30555556       0.59425000 </v>
   <v>       0.91666667       0.36111111       0.36805000 </v>
   <v>       0.97222222       0.41666667       0.36805000 </v>
   <v>       0.91666667       0.41666667       0.40575000 </v>
   <v>       0.97222222       0.36111111       0.40575000 </v>
   <v>       0.91666667       0.36111111       0.44345000 </v>
   <v>       0.97222222       0.41666667       0.44345000 </v>
   <v>       0.91666667       0.41666667       0.48115000 </v>
   <v>       0.97222222       0.36111111       0.48115000 </v>
   <v>       0.91666667       0.36111111       0.51885000 </v>
   <v>       0.97222222       0.41666667       0.51885000 </v>
   <v>       0.91666667       0.41666667       0.55655000 </v>
   <v>       0.97222222       0.36111111       0.55655000 </v>
   <v>       0.91666667       0.36111111       0.59425000 </v>
   <v>       0.97222222       0.41666667       0.59425000 </v>
   <v>       0.91666667       0.47222222       0.36805000 </v>
   <v>       0.97222222       0.52777778       0.36805000 </v>
   <v>       0.91666667       0.52777778       0.40575000 </v>
   <v>       0.97222222       0.47222222       0.40575000 </v>
   <v>       0.91666667       0.47222222       0.44345000 </v>
   <v>       0.97222222       0.52777778       0.44345000 </v>
   <v>       0.91666667       0.52777778       0.48115000 </v>
   <v>       0.97222222       0.47222222       0.48115000 </v>
   <v>       0.91666667       0.47222222       0.51885000 </v>
   <v>       0.97222222       0.52777778       0.51885000 </v>
   <v>       0.91666667       0.52777778       0.55655000 </v>
   <v>       0.97222222       0.47222222       0.55655000 </v>
   <v>       0.91666667       0.47222222       0.59425000 </v>
   <v>       0.97222222       0.52777778       0.59425000 </v>
   <v>       0.91666667       0.58333333       0.36805000 </v>
   <v>       0.97222222       0.63888889       0.36805000 </v>
   <v>       0.91666667       0.63888889       0.40575000 </v>
   <v>       0.97222222       0.58333333       0.40575000 </v>
   <v>       0.91666667       0.58333333       0.44345000 </v>
   <v>       0.97222222       0.63888889       0.44345000 </v>
   <v>       0.91666667       0.63888889       0.48115000 </v>
   <v>       0.97222222       0.58333333       0.48115000 </v>
   <v>       0.91666667       0.58333333       0.51885000 </v>
   <v>       0.97222222       0.63888889       0.51885000 </v>
   <v>       0.91666667       0.63888889       0.55655000 </v>
   <v>       0.97222222       0.58333333       0.55655000 </v>
   <v>       0.91666667       0.58333333       0.59425000 </v>
   <v>       0.97222222       0.63888889       0.59425000 </v>
   <v>       0.91666667       0.69444444       0.36805000 </v>
   <v>       0.97222222       0.75000000       0.36805000 </v>
   <v>       0.91666667       0.75000000       0.40575000 </v>
   <v>       0.97222222       0.69444444       0.40575000 </v>
   <v>       0.91666667       0.69444444       0.44345000 </v>
   <v>       0.97222222       0.75000000       0.44345000 </v>
   <v>       0.91666667       0.75000000       0.48115000 </v>
   <v>       0.97222222       0.69444444       0.48115000 </v>
   <v>       0.91666667       0.69444444       0.51885000 </v>
   <v>       0.97222222       0.75000000       0.51885000 </v>
   <v>       0.91666667       0.75000000       0.55655000 </v>
   <v>       0.97222222       0.69444444       0.55655000 </v>
   <v>       0.91666667       0.69444444       0.59425000 </v>
   <v>       0.97222222       0.75000000       0.59425000 </v>
   <v>       0.91666667       0.80555556       0.36805000 </v>
   <v>       0.97222222       0.86111111       0.36805000 </v>
   <v>       0.91666667       0.86111111       0.40575000 </v>
   <v>       0.97222222       0.80555556       0.40575000 </v>
   <v>       0.91666667       0.80555556       0.44345000 </v>
   <v>       0.97222222       0.86111111       0.44345000 </v>
   <v>       0.91666667       0.86111111       0.48115000 </v>
   <v>       0.97222222       0.80555556       0.48115000 </v>
   <v>       0.91666667       0.80555556       0.51885000 </v>
   <v>       0.97222222       0.86111111       0.51885000 </v>
   <v>       0.91666667       0.86111111       0.55655000 </v>
   <v>       0.97222222       0.80555556       0.55655000 </v>
   <v>       0.91666667       0.80555556       0.59425000 </v>
   <v>       0.97222222       0.86111111       0.59425000 </v>
   <v>       0.91666667       0.91666667       0.36805000 </v>
   <v>       0.97222222       0.97222222       0.36805000 </v>
   <v>       0.91666667       0.97222222       0.40575000 </v>
   <v>       0.97222222       0.91666667       0.40575000 </v>
   <v>       0.91666667       0.91666667       0.44345000 </v>
   <v>       0.97222222       0.97222222       0.44345000 </v>
   <v>       0.91666667       0.97222222       0.48115000 </v>
   <v>       0.97222222       0.91666667       0.48115000 </v>
   <v>       0.91666667       0.91666667       0.51885000 </v>
   <v>       0.97222222       0.97222222       0.51885000 </v>
   <v>       0.91666667       0.97222222       0.55655000 </v>
   <v>       0.97222222       0.91666667       0.55655000 </v>
   <v>       0.91666667       0.91666667       0.59425000 </v>
   <v>       0.97222222       0.97222222       0.59425000 </v>
   <v>       0.39787798       0.44208665       0.72545000 </v>
   <v>       0.42859614       0.46901049       0.71860500 </v>
   <v>       0.43806398       0.46586899       0.68869104 </v>
   <v>       0.46878078       0.49279546       0.68184800 </v>
   <v>       0.41452505       0.47211264       0.67696704 </v>
   <v>       0.50585662       0.51206920       0.64144804 </v>
   <v>       0.45213504       0.46276617       0.73033102 </v>
   <v>       0.40665031       0.41495149       0.72114600 </v>
   <v>       0.49231969       0.48655113       0.69357104 </v>
   <v>       0.46000978       0.51992732       0.68615200 </v>
   <v>       0.41982514       0.49614232       0.72291102 </v>
   <v>       0.44683495       0.43873646       0.68438704 </v>
   <v>       0.37434041       0.44832765       0.71372600 </v>
   <v>       0.39130156       0.44426858       0.74623402 </v>
   <v>       0.47972370       0.48916581       0.64727200 </v>
  </varray>
 </structure>
</modeling>
